Maintainers by package:
0ad                  kalev limb pcpa
0ad-data             bruno kalev limb
2048-cli             besser82
3dprinter-udev-rules churchyard
AMF                  slaanesh
Agda-stdlib          petersen
AllegroOGG           jwrdegoede
ArpON                sagarun
CFR                  jvanek
CQRlib               krege
CTML                 dcavalca
CVector              krege
CardManager          jvanek
ClanLib              jwrdegoede
ClanLib06            jwrdegoede
ClanLib1             jwrdegoede
DevIL                jwrdegoede
FAudio               mooninite
FoXlibf              marcindulak
FreeSOLID            martinkg
GLee                 lkundrak
GarminPlugin         besser82
GeographicLib        smani
GraphicsMagick       ixs
Hermes               jwrdegoede
IP2Location          pbiering remi
IQmol                jussilehtola
ImageMagick          kalev luya remi
MUMPS                sagitter
MagicPoint           jwrdegoede
Mars                 mikep scottt
Mayavi               orion
NLopt                fed500
NearTree             krege
OpenColorIO          hobbes1069
OpenMolcas           jussilehtola
QsLog                jussilehtola
QuantLib             spot
R-rpm-macros         qulogic spot
SAASound             jwrdegoede
SDL2_image           fcami ngompa
SDL2_net             ignatenkobrain jonathanspw ngompa
SDL_mng              dulsi
SDL_sound            jonathanspw jwrdegoede robert
SILLY                jwrdegoede
SOIL                 belegdol
Simple-Fuzzer        aconole
TurboGears2          cverna ondrejj
YafaRay              luya slaanesh
abduco               dfateyev linkdupont
academic-admin       mikep
accerciser           kalev mclasen
act                  churchyard
adime                jwrdegoede
admeshgui            churchyard
adobe-source-serif-pro-fonts suraia
aeskeyfind           rebus
afflib               kwizart rebus
aftertheflood-sparks-fonts eclipseo
agedu                jussilehtola
ahven                rombobeorn
aisleriot            mclasen rstrode
akmods               kwizart leigh123linux nvieville siosm slaanesh
akonadi-calendar-tools marcdeop
alchemyquest         dulsi xavierb
alef-fonts           aekoroglu
alfont               jwrdegoede
allegro5             jwrdegoede
allgeyer-fonts       spot
altermime            jorti steve timj
am-utils             iankent
aml                  ngompa wef
ampy                 churchyard
android-tools        van
angband              dherrera
angelscript          limb
ansible-bender       gordonmessmer
ansible-collection-kubernetes-core gotmax23 kevin
ansible-collection-microsoft-sql rmeggins spetros
antlrworks           melmorabity
apache-commons-math  melmorabity spike
apanov-heuristica-fonts aekoroglu
apitrace             smani
apptainer            dwd
apx                  raphgro
archivemount         devos
argbash              sgallagh
args4j               mbooth mizdebsk mkoncek
argtable             nonamedotc pwouters
aria2                neil
ark                  than
arm-none-eabi-binutils-cs mhlavink
arpack               besser82 imcinerney jussilehtola tdawson
arprec               besser82
asahi-scripts        dcavalca ngompa salimma
asdcplib             aekoroglu kwizart slaanesh
aspell-en            jchaloup ljavorsk nforro
aspell-ru            jchaloup ljavorsk nforro
aspell-sk            ondrejj
ast                  orion
asterisk-sounds-core jsmith
atf                  jonathanspw ngompa
atkmm2.36            kalev mclasen
atril                raveit65 robert
attica               marcdeop
audacious-plugins    danfruehauf mschwendt robert
auditwheel           churchyard
automoc              than
autossh              abo fale
avoision             spot
awesome              thm
awesome-vim-colorschemes cn137 rcallicotte
ax25-apps            hobbes1069
badchars             fab
ballz                bruno jwrdegoede
bam                  lkundrak
bash-argsparse       jonathanspw
bats                 harrymichal mikelo2
battray              aarem
bbkeys               filiperosset
bcd                  kwizart
beansbinding         omajid
beanstalkd           gnat
bear-factory         martinkg
beets                gbcox maha mbaldessari
bind-to-tinydns      timj
bio2jack             dtimms
bitcoin-core         slaanesh
bitmap               stevetraylen
bitstream            kwizart
black-hole-solver    shlomif
blackbox             cicku filiperosset
blaze                diehlpk
blobwars             bruno
blogilo              kkofler
blt                  krege sergiopr
bltk                 jskarvad
bluebird             kevin maxamillion
boinc-client         germano
boomaga              martinkg
botan                thm
bouncycastle         ellert mbooth
bpython              maxamillion salimma terjeros
brightnessctl        fale ngompa pjgeorg
bsd-games            jmakey
bsdiff               jnovy salimma
bspwm                pidgornyy
btrfs-fuse           dcavalca salimma
btrfs-heatmap        jorti
budgie-control-center joshstrobl
bugzilla             astra eseyman
build-constraints-rpm-macros salimma
bullet               jonathanspw sharkcz
bumpversion          dcavalca fedepell jonathanspw
bwidget              krege
bwping               alciregi
byteman              jerboaa
bzflag               jmakey
c++-gtk-utils        airwave echevemaster
c-ares               spot
caja                 raveit65 robert
caja-actions         raveit65 robert
can-utils            jkastner linville pbrobinson pmatilai rrendec
capnproto            ngompa
caribou              yselkowitz
cataclysm-dda        dulsi
catalyst             orion
catimg               keesdejong
cava                 larsks
cbios                jwrdegoede
cc1541               besser82
cc65                 besser82 sharkcz
cdlabelgen           rathann
cdogs-sdl            jwrdegoede
cdparanoia           ajax pjones
cegui06              bruno jwrdegoede
cekit                goldmann rnc
cgreen               souryogurt
charliecloud         jogas
check_postgres       devrim
checksec             yanqiyu
chisholm-to-be-continued-fonts aekoroglu
cinnamon             leigh123linux
cinnamon-control-center leigh123linux
cinnamon-desktop     leigh123linux
cinnamon-menus       leigh123linux
cinnamon-screensaver leigh123linux
cinnamon-session     leigh123linux
cinnamon-settings-daemon leigh123linux
cjdns                sdgathman
cjs                  leigh123linux
ckeditor             siwinski
clang13              petersen sergesanspaille
classified-ads       costello
clatd                ingvar
clearlooks-compact-gnome-theme lkundrak
clitest              jonny
clojure              korkeala kushal walters
clojure-core-specs-alpha korkeala
clojure-maven-plugin korkeala
clojure-spec-alpha   korkeala
clthreads            tartina
clucene              limb
clutter              fmuellner kalev mclasen walters
clutter-gst3         amigadave
clutter-gtk          kalev mclasen
cluttermm            rishi
clxclient            tartina
cm_rgb               ausil
cminpack             imcinerney
cmrt                 dcavalca kwizart
coan                 ajax filiperosset
cocot                ueno
code2html            moceap
cogl                 fmuellner kalev mclasen
coin-or-DyLP         sagitter
coin-or-Ipopt        sagitter
coin-or-Vol          sagitter
coldet               jwrdegoede
colm                 filiperosset jtaylor
colorized-logs       kilobyte salimma
comic-neue-fonts     kvolny
common-lisp-controller peter
commoncpp2           smani
compat-flex          pmachata
compat-lua           jwrdegoede moceap remi salimma
compat-tolua++       jwrdegoede
compiz               jskarvad raveit65
compiz-plugins-extra jskarvad
compizconfig-python  jskarvad
comps-extras         ngompa
console-image-viewer jvanek
corectrl             atim
corsix-th            atim
cortado              jwrdegoede
cowpatty             sagarun
cowsay-beefymiracle  ndim wwoods
cpdup                salimma
cpp-httplib          orion pemensik
cppcodec             aekoroglu
cpphs                petersen
cpprest              c72578
cpptest              fcami
cpputest             salimma
cppzmq               qulogic
crossguid            melmorabity
crossguid2           sagitter
crrcsim-addon-models dwrobel
csmith               vmihalko
cstream              ndim
ctan-cm-lgc-fonts    aekoroglu
ctan-kerkis-fonts    aekoroglu
cubeb                mystro256
curlpp               filiperosset
cvise                mpolacek
cwm                  bmeneguele
cxxtools             martinkg
d-din-fonts          ngompa
dSFMT                laxathom nalimilan
daala                kwizart slaanesh
daggy                atim ignatenkobrain milovidov
dahdi-tools          bruno jsmith
dapl                 honli
daq                  marcindulak
darkhttpd            cicku filiperosset
dbus-c++             drago01
dbus-sharp           alexl rhughes rstrode tpokorra
dbus-sharp-glib      tpokorra
dcfldd               rebus
ddnet                ngompa rffontenelle
ddpt                 sharkcz
ddupdate             leamas
debconf              ngompa
debootstrap          jonathanspw lkundrak ngompa
decentxml            mbooth mizdebsk mkoncek
dehydrated           pwouters robert
deluge               mooninite
detox                filiperosset slankes
dev86                jnovy lkundrak
devio                sharkcz
dicomanonymizer      alciregi
diff-pdf             vascom
dionaea              rebus
dirgra               didiksupriadi41
disciplining-minipod abulimov dcavalca leoleovich pcullen pmazzini salimma vfedorenko yarek
discount             tdawson
disk-utilities       dcavalca
dispenso             salimma
dmenu                cicku mathstuf mrc0mmand psabata
dmg2img              peter
dmtx-utils           sharkcz
dnf-plugin-cow       dcavalca ngompa salimma
dnssec-tools         mspacek
dnstracer            jonathanspw
docbook-slides       anezbeda ovasik
docbook2X            slankes
docbook5-style-xsl   anezbeda osloup ovasik tdawson
doclifter            defolos
docparser            cheeselee topazus
doge                 churchyard
dolphin-connector    poetinha
dom4j                jwrdegoede mizdebsk mkoncek sdgathman
domoticz             mooninite
douceur              athoscr
dpdk                 aconole linville tredaell
dpkg                 cheeselee ngompa slaanesh
drehatlas-widelands-fonts jwrdegoede
driverctl            fbl tredaell
dropbear             cicku fedepell
dropbox-api-command  mathstuf
drpm                 jmracek mcbeeffx
drraw                xavierb
dssi                 tartina
dt                   agk mbroz okozina
dub                  dcavalca
duel3                jwrdegoede
duff                 echevemaster
dumb                 jwrdegoede
dumb-init            suve
dump1090             sdgathman
dvblinkremote        melmorabity
dvtm                 maxamillion psabata
dxf2gcode            dwrobel
dxpc                 ajax
dxvk-native          ngompa
dynaconf             dmsimard
dynamite             jwrdegoede
e16                  terjeros
e16-docs             terjeros
e16-epplets          terjeros
e16-keyedit          terjeros
e16-themes           terjeros
ebook-tools          siosm
ebtree               ingvar
ec2-metadata         manpaz
echo-icon-theme      alexl luya rhughes rstrode
ecj                  abbra
eclipse-swt          deamn
editres              terjeros
efl                  dchen spot
efont-unicode-bdf    mtasaka
egd                  spot
egl-gbm              ework ngompa slaanesh
eiskaltdcpp          vascom
ektype-mukta-fonts   fed500
electron-cash        jonny peter
electrum             js
elementary           konradm orphan spot
elements             aalvarez
elements-alexandria  aalvarez
elfio                ignatenkobrain orion
elisa-player         tripledes vascom
emacs-irsim-mode     sagarun
emacs-json-reformat  melmorabity
enblend              bpostle
enchant              limb
endless-sky          linkdupont
endlessh             mikelo2
enet                 bruno fcami jwrdegoede
engrampa             raveit65 robert
enlightenment        cicku dchen spot
entypo-fonts         leamas
enum                 kdudka ovasik
envytools            jwrdegoede lyude
eom                  raveit65 robert
ephemeral-port-reserve cstratak
erlang-base64url     bowlofeggs peter
erlang-bbmustache    peter
erlang-chronos       peter
erlang-cl            peter
erlang-cowboy        peter
erlang-eflame        peter
erlang-egeoip        peter
erlang-eradius       bowlofeggs peter
erlang-erlsyslog     peter
erlang-erlware_commons peter
erlang-erlydtl       peter
erlang-esasl         peter
erlang-fuse          peter
erlang-gettext       peter
erlang-goldrush      bowlofeggs jcline peter
erlang-gtknode       peter
erlang-hyper         peter
erlang-idna          bowlofeggs peter
erlang-jiffy         bowlofeggs lkundrak peter
erlang-jose          jcline peter
erlang-jsx           peter
erlang-kvc           peter
erlang-mochiweb      peter
erlang-mustache      peter
erlang-neotoma       peter
erlang-oauth         peter
erlang-oauth2        jcline peter
erlang-p1_oauth2     bowlofeggs jcline peter
erlang-ranch         peter
erlang-rebar         jeckersb peter
erlang-rpm-macros    jeckersb peter
erlang-sd_notify     jeckersb peter
erlang-ssl_verify_fun peter
esh                  churchyard
esound               robert terjeros
eterm                terjeros
eventlog             czanik mrunge
exo                  kevin nonamedotc
expatpp              peter
extra-cmake-modules  cicku lkundrak
f27-backgrounds      dreua luya
f28-backgrounds      dreua luya
fakechroot           cicku corsepiu ngompa
fakeroot             lkundrak moceap ngompa
falkon               kkofler
farstream02          stefanb uraeus
fastbit              pkfed
fastlz               remi
fatcat               dcavalca
fbg2                 spot
fcgi                 kni
fcgiwrap             kni
fcitx-m17n           cheeselee yanqiyu
fcitx-qt5            cheeselee yanqiyu
fcitx5               yanqiyu
fcitx5-chewing       yanqiyu
fcitx5-chinese-addons yanqiyu
fcitx5-gtk           yanqiyu
fcitx5-hangul        yanqiyu
fcitx5-lua           yanqiyu
fcitx5-m17n          yanqiyu
fcitx5-mozc          music yanqiyu
fcitx5-qt            yanqiyu
fcitx5-rime          yanqiyu
fcitx5-unikey        yanqiyu
fedora-appstream-metadata siosm
fedora-flathub-remote otaylor
fedora-gnat-project-common rombobeorn
fedora-jam-kde-theme q5sys
fedora-third-party   otaylor
fedora-workstation-repositories mclasen
fedorainfinity-backgrounds besser82
feh                  fale mathstuf
fennel               salimma
fgrun                bellet
fido                 besser82 cdamian
figtoipe             cicku
firefox              alexl jgrulich kalev rhughes rstrode sharkcz stransky tpopela xhorak
firewalk             huzaifas
fishbowl             didiksupriadi41
five-or-more         kalev mclasen
fixedptc             dwrobel
flatpak-module-tools kalev otaylor yselkowitz
flite                peter rathann thebeanogamer
flopgen              dcavalca
floppy-support       bruno
florence             cicku kevin
flow-tools           orion stingray
fluid                lkundrak plfiorini
fluxbox              dchen
flwkey               hobbes1069
flyingsaucersattack  jwrdegoede
fmit                 dwrobel
folly-rpm-macros     salimma
fontawesome-fonts    dcavalca fale jjames mrunge pvoborni
fontsquirrel-crete-round-fonts rathann
fortune-mod          ngompa shlomif
foundation-icons-fonts xavierb
freealut             jwrdegoede limb
freecell-solver      shlomif
freecolor            dfateyev
freeradius-client    peter
freight              evgeni survient
fsverity-utils       walters
ftnchek              orion
ftplib               spot
funguloids           jwrdegoede
fuse-pingfs          mikelo2
fuzzel               alebastr atim
fwts                 benzea
fzf                  qulogic
ga                   marcindulak
gabedit              mtasaka rathann
game-music-emu       kvolny tdawson
gamescope            farchord frantisekz ngompa thunderbirdtr
ganglia              terjeros
garcon               kevin nonamedotc orion
gau2grid             jussilehtola
gbdfed               spot
gc                   pcpa praiskup robert
gcompris-qt          musuruan
gconf-editor         alexl rhughes rstrode trawets
gdlmm                dodji kalev mclasen
geany                dmaphy pingou
geany-themes         dmaphy
gearhead1            suve
gears-backgrounds    q5sys
geary                salimma thm
gecode               orphan
gedit-plugin-editorconfig ferdnyc
generic-logos        ngompa
gflags               dcavalca
ghasher              filiperosset
ghc-base-compat      mathstuf petersen
ghc-base-compat-batteries petersen
ghc-base-orphans     qulogic
ghc-base-prelude     qulogic
ghc-bower-json       petersen
ghc-call-stack       petersen
ghc-conduit          petersen
ghc-conduit-extra    petersen
ghc-cookie           petersen
ghc-doctest          qulogic
ghc-hoauth2          petersen
ghc-hslua-module-text petersen
ghc-hspec            dshea petersen
ghc-hspec-core       dshea petersen
ghc-hspec-discover   dshea petersen
ghc-http-client-openssl petersen
ghc-http-client-restricted qulogic
ghc-http-client-tls  qulogic
ghc-lens-aeson       dshea
ghc-monad-logger     petersen
ghc-protolude        petersen
ghc-relude           petersen
ghc-repline          petersen
ghc-rio              petersen
ghc-shakespeare      petersen
ghc-streaming-commons petersen
ghc-th-abstraction   qulogic
ghc-typed-process    petersen
ghc-unliftio         petersen
ghc-vector-builder   qulogic
ghc-wai-app-static   qulogic
ghc-warp-tls         qulogic
ghc-yesod            petersen
ghc-yesod-core       petersen
ghc-yesod-form       petersen
ghc-yesod-persistent petersen
ghdl                 sailer
gif2png              jonathanspw
gio-sharp            tpokorra
git-archive-all      hobbes1069
git-evtag            ignatenkobrain walters
git-extras           besser82 vascom
git-publish          stefanha
git-secret           gombosg
git-up               ekohl
gitlint              skitt
giver                spot
gkeyfile-sharp       tpokorra
glade                kalev mclasen
glew                 ajax jexposit orion tdawson
glide                orphan
glm                  muep orion
global               cheeselee landgraf
glog                 jonathanspw stevetraylen
glues                raphgro
glyph-keeper         jwrdegoede
glyphicons-halflings-fonts kni
gmime                alexl rhughes rstrode
gnat-srpm-macros     landgraf rombobeorn
gnome-bluetooth3.34  limb
gnome-builder        amigadave ignatenkobrain
gnome-desktop-sharp  laxathom tpokorra
gnome-dictionary     mclasen
gnome-js-common      salimma
gnome-keyring-sharp  salimma tpokorra
gnome-klotski        kalev mclasen
gnome-music          kalev mclasen
gnome-nettool        alexl kalev mclasen rhughes rstrode
gnome-panel          atim yselkowitz
gnome-sharp          laxathom rhughes rstrode tpokorra
gnome-subtitles      belegdol
gnome-system-log     mclasen rstrode
gnome-tetravex       kalev mclasen
gnulib               moceap
gnuplot              jkucera pcahyna
go2rpm               alexsaezm eclipseo gotmax23 mikelo2
goddard-backgrounds  q5sys
godotenv             athoscr
golang-bazil-fuse    jchaloup mikelo2
golang-bitbucket-ww-goautoneg jchaloup mikelo2
golang-etcd-bbolt    mikelo2
golang-github-a8m-tree jchaloup mikelo2
golang-github-adrg-xdg orphan
golang-github-afex-hystrix alexsaezm
golang-github-akavel-rsrc eclipseo
golang-github-alecthomas-chroma athoscr
golang-github-alecthomas-kong qulogic
golang-github-alecthomas-kong-hcl mikelo2
golang-github-alecthomas-repr felixonmars qulogic zsun
golang-github-alecthomas-units felixonmars zsun
golang-github-alexflint-filemutex mikelo2
golang-github-aliyun-oss-sdk eclipseo
golang-github-aliyun-ossutil orphan
golang-github-alyu-configparser orphan
golang-github-andreyvit-diff gotmax23
golang-github-andybalholm-brotli alexsaezm
golang-github-andybalholm-cascadia athoscr
golang-github-anmitsu-shlex jchaloup mikelo2
golang-github-antchfx-htmlquery eclipseo
golang-github-antchfx-xmlquery mikelo2
golang-github-antihax-optional mikelo2
golang-github-armon-metrics orphan
golang-github-armon-socks5 mikelo2
golang-github-asaskevich-govalidator logic
golang-github-aws-lambda mikelo2
golang-github-axgle-mahonia zsun
golang-github-aykevl-wasm qulogic
golang-github-azure-amqp mikep
golang-github-azure-amqp-common mikep
golang-github-azure-sdk jcline
golang-github-badoux-checkmail qulogic
golang-github-benbjohnson-clock nathans
golang-github-beorn7-perks jchaloup mikelo2
golang-github-bep-workers mikep
golang-github-bgentry-speakeasy alexsaezm jchaloup
golang-github-bifurcation-mint eclipseo
golang-github-bitly-simplejson jchaloup mikelo2
golang-github-blakesmith-ar qulogic
golang-github-blang-semver mikelo2
golang-github-bmizerany-assert jchaloup mikelo2
golang-github-boombuler-barcode logic
golang-github-bruth-assert saluki
golang-github-bshuster-repo-logrus-logstash-hook mikelo2
golang-github-bugsnag alexsaezm
golang-github-bugsnag-panicwrap alexsaezm jchaloup
golang-github-burntsushi-toml dfateyev mikelo2
golang-github-burntsushi-toml-test mikelo2
golang-github-burntsushi-xgb eclipseo
golang-github-c-bata-prompt eclipseo
golang-github-cactus-statsd-client alexsaezm
golang-github-cention-sany-utf7 eclipseo
golang-github-chai2010-gettext eclipseo
golang-github-chappjc-logrus-prefix dcavalca
golang-github-cheekybits-is zsun
golang-github-chi    mikelo2
golang-github-chris-ramon-douceur eclipseo
golang-github-chromedp qulogic
golang-github-chromedp-cdproto qulogic
golang-github-chromedp-sysutil eclipseo
golang-github-chzyer-test jchaloup mikelo2
golang-github-cilium-ebpf alexsaezm
golang-github-circonus-labs-apiclient mikelo2
golang-github-circonus-labs-circonusllhist mikelo2
golang-github-circonus-labs-gometrics mikelo2
golang-github-clbanning-mxj mikelo2
golang-github-clbanning-x2j mikelo2
golang-github-clickhouse dcavalca
golang-github-client9-plaintext eclipseo
golang-github-cmd    eclipseo
golang-github-cockroachdb-pebble eclipseo
golang-github-cockroachdb-sentry alexsaezm
golang-github-codegangsta-inject mikelo2
golang-github-colinmarc-hdfs-2 mikelo2
golang-github-coreos-ioprogress eclipseo
golang-github-cpu-goacmedns eclipseo
golang-github-cpuguy83-md2man dfateyev mikelo2
golang-github-creack-goselect qulogic
golang-github-creack-pty alexsaezm
golang-github-crossdock mikelo2
golang-github-cucumber-gherkin eclipseo
golang-github-cucumber-godog eclipseo
golang-github-cucumber-messages eclipseo
golang-github-d2g-dhcp4 alexsaezm
golang-github-daaku-zipexe eclipseo
golang-github-data-dog-sqlmock dcavalca
golang-github-datadog alexsaezm
golang-github-davecgh-spew mikelo2
golang-github-denisbrodbeck-machineid dcavalca
golang-github-denisenkom-mssqldb mikelo2
golang-github-devigned-tab mikep
golang-github-dgrijalva-jwt alexsaezm
golang-github-disintegration-imaging felixonmars zsun
golang-github-djherbis-atime qulogic
golang-github-dlclark-regexp2 athoscr
golang-github-dnaeon-vcr alexsaezm jchaloup
golang-github-docker-go mikelo2
golang-github-docopt mikelo2
golang-github-droundy-goopt orphan
golang-github-dustin-humanize mikelo2
golang-github-dvsekhvalnov-jose2go jchaloup mikelo2
golang-github-eapache-queue mikelo2
golang-github-eapache-resiliency mikelo2
golang-github-eapache-xerial-snappy mikelo2
golang-github-eclipse-paho-mqtt orphan
golang-github-edsrzf-mmap alexsaezm
golang-github-eknkc-amber athoscr
golang-github-elazarl-bindata-assetfs eclipseo
golang-github-emersion-message eclipseo
golang-github-emersion-sasl eclipseo
golang-github-emersion-smtp eclipseo
golang-github-emersion-textwrapper eclipseo
golang-github-emicklei-restful alexsaezm
golang-github-erikstmartin-testdb mikelo2
golang-github-errors alexsaezm
golang-github-evanw-esbuild mikep
golang-github-facebookgo-clock eclipseo
golang-github-facebookincubator-contest dcavalca
golang-github-facebookincubator-dhcplb dcavalca
golang-github-fatih-color mikep
golang-github-felixge-httpsnoop mikelo2
golang-github-fernet alexsaezm
golang-github-flynn-json5 eclipseo jchaloup
golang-github-fogleman-gg cheeselee zsun
golang-github-form3tech-oss-jwt alexsaezm
golang-github-fortytw2-leaktest athoscr
golang-github-francoispqt-gojay mikelo2
golang-github-franela-goblin mikelo2
golang-github-franela-goreq mikelo2
golang-github-frankban-quicktest alexsaezm
golang-github-fvbommel-util eclipseo
golang-github-geertjohan-incremental eclipseo
golang-github-getkin-kin-openapi mikep
golang-github-ghodss-yaml jchaloup mikelo2
golang-github-gin-contrib-cors trix
golang-github-gin-contrib-sse mikelo2
golang-github-gin-gonic alexsaezm
golang-github-git-gcfg mikelo2
golang-github-globalsign-mgo alexsaezm jchaloup
golang-github-gobuffalo-envy athoscr
golang-github-gobuffalo-here eclipseo
golang-github-gobuffalo-logger mikelo2
golang-github-gobuffalo-packd mikelo2
golang-github-gobuffalo-packr mikelo2
golang-github-gobwas-glob athoscr
golang-github-gobwas-httphead qulogic
golang-github-gobwas-pool qulogic
golang-github-gobwas-ws qulogic
golang-github-goccy-json eclipseo
golang-github-gocql  orphan
golang-github-gofrs-uuid alexsaezm
golang-github-gogs-chardet eclipseo
golang-github-gohugoio-locales mikep
golang-github-gojuno-minimock dcavalca
golang-github-gokyle-twofactor fale
golang-github-golangci-lint-1 obudai
golang-github-golangplus-bytes qulogic
golang-github-golangplus-fmt qulogic
golang-github-golangplus-testing qulogic
golang-github-gomarkdown-markdown eclipseo
golang-github-google-goterm dcavalca
golang-github-google-pprof jchaloup mikelo2
golang-github-google-querystring mikelo2
golang-github-gorilla-csrf mikelo2
golang-github-gorilla-css athoscr
golang-github-gorilla-handlers jchaloup mikelo2
golang-github-gorilla-schema alexsaezm
golang-github-gorilla-securecookie jchaloup mikelo2
golang-github-gorilla-sessions jchaloup mikelo2
golang-github-gosexy-gettext zyga
golang-github-gosuri-uilive dcavalca
golang-github-gregjones-httpcache jchaloup mikelo2
golang-github-grpc-ecosystem-gateway alexsaezm
golang-github-grpc-ecosystem-gateway-2 fale
golang-github-gucumber eclipseo
golang-github-h2non-parth mikelo2
golang-github-hailocab-hostpool mikelo2
golang-github-hashicorp-hclog alexsaezm
golang-github-hashicorp-msgpack fuller
golang-github-hashicorp-syslog dcavalca
golang-github-hdrhistogram mikelo2
golang-github-hexdigest-gowrap dcavalca
golang-github-hhrutter-lzw fale
golang-github-hhrutter-tiff fale
golang-github-huandu-xstrings mikelo2
golang-github-hudl-fargo alexsaezm
golang-github-hugelgupf-socketpair dcavalca
golang-github-hydrogen18-memlistener alexsaezm
golang-github-ianbruene-difflib dfateyev
golang-github-iancoleman-strcase alexsaezm
golang-github-ianlancetaylor-demangle jchaloup mikelo2
golang-github-inconshreveable-log15 nathans
golang-github-influxdata-influxdb1-client mikelo2
golang-github-insomniacslk-termhook dcavalca
golang-github-insomniacslk-xjson dcavalca
golang-github-j-keck-arping eclipseo
golang-github-jackc-chunkreader-2 linkdupont
golang-github-jackc-pgconn eclipseo
golang-github-jackc-pgio eclipseo
golang-github-jackc-pgpassfile eclipseo
golang-github-jackc-pgproto3 eclipseo
golang-github-jackc-pgservicefile eclipseo
golang-github-jackc-pgtype eclipseo
golang-github-jackc-pgx eclipseo
golang-github-jackc-puddle eclipseo
golang-github-jarcoal-httpmock orphan
golang-github-jawher-mow-cli eclipseo
golang-github-jessevdk-flags mikelo2
golang-github-jinzhu-gorm mikelo2
golang-github-jinzhu-inflection mikelo2
golang-github-jinzhu-now qulogic
golang-github-jmhodges-clock alexsaezm
golang-github-jmoiron-sqlx alexsaezm
golang-github-joho-godotenv fuller
golang-github-josharian-intern mikelo2
golang-github-jsimonetti-rtnetlink fuller
golang-github-json-iterator mikelo2
golang-github-jtolds-gls jchaloup mikelo2
golang-github-julienschmidt-httprouter jchaloup mikelo2
golang-github-jwt    gundersanne obudai
golang-github-jwt-4  alexsaezm
golang-github-k0kubun-ansi mikelo2
golang-github-kalafut-imohash dcavalca
golang-github-kardianos-osext fuller
golang-github-kardianos-service jchaloup mhayden
golang-github-karrick-godirwalk mikelo2
golang-github-karrick-golf mikelo2
golang-github-kballard-shellquote mikelo2
golang-github-kennygrant-sanitize eclipseo
golang-github-kisielk-sqlstruct mikelo2
golang-github-kit    alexsaezm
golang-github-kit-log alexsaezm
golang-github-klauspost-pgzip dcavalca
golang-github-knetic-govaluate alexsaezm
golang-github-kr-fs  jchaloup mikelo2
golang-github-kr-pretty alexsaezm jchaloup
golang-github-kr-pty jchaloup orphan
golang-github-kr-text alexsaezm jchaloup
golang-github-kyokomi-emoji athoscr olem
golang-github-labstack-echo-4 mikelo2
golang-github-labstack-gommon obudai
golang-github-lann-ps dcavalca
golang-github-leodido-urn mikelo2
golang-github-lestrrat-envload orphan
golang-github-lestrrat-strftime orphan
golang-github-leveldb eclipseo
golang-github-lib-pq mikelo2
golang-github-logfmt alexsaezm
golang-github-lucasb-eyer-colorful qulogic
golang-github-lunixbochs-vtclean dreua
golang-github-magiconair-properties orphan
golang-github-mailru-easyjson mikelo2
golang-github-manifoldco-promptui eclipseo
golang-github-marcinbor85-gohex qulogic
golang-github-markbates-errx mikelo2
golang-github-markbates-oncer mikelo2
golang-github-markbates-pkger eclipseo
golang-github-markbates-safe mikelo2
golang-github-martinhoefling-goxkcdpwgen fale
golang-github-martini alexsaezm
golang-github-masterminds-semver fuller
golang-github-masterminds-semver-1 eclipseo
golang-github-masterminds-vcs dcavalca
golang-github-matryer-try qulogic
golang-github-mattn-colorable mikelo2
golang-github-mattn-ieproxy orphan
golang-github-mattn-isatty mikelo2
golang-github-mattn-runewidth mikelo2
golang-github-mattn-shellwords qulogic
golang-github-mattn-sqlite3 mikelo2
golang-github-mattn-tty fale
golang-github-mdlayher-ethernet dcavalca
golang-github-mdlayher-genetlink fuller
golang-github-mdlayher-netlink dcavalca
golang-github-mdlayher-raw dcavalca
golang-github-mgutz-ansi logic
golang-github-mikioh-ipaddr eclipseo
golang-github-mitchellh-colorstring mikelo2
golang-github-mitchellh-copystructure alexsaezm
golang-github-mitchellh-homedir mikelo2
golang-github-mitchellh-mapstructure jchaloup mikelo2
golang-github-mitchellh-reflectwalk alexsaezm
golang-github-mitchellh-wordwrap mikelo2
golang-github-mmarkdown-mmark eclipseo
golang-github-mndrix-tap eclipseo
golang-github-mohae-deepcopy alexsaezm
golang-github-montanaflynn-stats athoscr
golang-github-morikuni-aec alexsaezm
golang-github-mr-tron-base58 eclipseo
golang-github-mreiferson-httpclient mikelo2
golang-github-mroach-rom64 dcavalca
golang-github-multiformats-base32 eclipseo
golang-github-multiformats-base36 eclipseo
golang-github-multiformats-multibase eclipseo
golang-github-mvo5-goconfigparser zyga
golang-github-mvo5-uboot eclipseo
golang-github-mxk-flowrate mikelo2
golang-github-ncw-swift alexsaezm jchaloup
golang-github-nfnt-resize felixonmars zsun
golang-github-nicksnyder-i18n-2 qulogic
golang-github-nightlyone-lockfile eclipseo
golang-github-niklasfasching-org qulogic
golang-github-nsf-termbox eclipseo jchaloup
golang-github-nwidger-jsoncolor eclipseo jchaloup
golang-github-nxadm-tail mikelo2
golang-github-olekukonko-tablewriter mikelo2
golang-github-onsi-ginkgo jchaloup mikelo2
golang-github-onsi-gomega jchaloup mikelo2
golang-github-op-logging mikelo2
golang-github-openapi-inflect dcavalca
golang-github-opentracing-basictracer eclipseo
golang-github-otiai10-copy mikelo2
golang-github-otiai10-mint mikelo2
golang-github-pact-foundation eclipseo
golang-github-patrickmn-cache mikelo2
golang-github-pborman-getopt mikelo2
golang-github-pelletier-toml-2 mikep
golang-github-performancecopilot-speed alexsaezm
golang-github-peterbourgon-diskv jchaloup mikelo2
golang-github-peterh-liner eclipseo
golang-github-pgaskin-koboutils dcavalca
golang-github-philhofer-fwd mikelo2
golang-github-pierrec-cmdflag mikelo2
golang-github-pierrre-geohash eclipseo
golang-github-pingcap-errors alexsaezm
golang-github-pkg-browser mikelo2
golang-github-pkg-diff dcavalca
golang-github-pkg-term dcavalca
golang-github-playground-assert-2 mikelo2
golang-github-playground-locales mikelo2
golang-github-playground-universal-translator mikelo2
golang-github-playground-validator-10 alexsaezm
golang-github-pmezard-difflib mikelo2
golang-github-posener-complete alexsaezm
golang-github-posener-complete-2 eclipseo
golang-github-powerman-deepequal eclipseo
golang-github-pressly-goose dcavalca
golang-github-puerkitobio-purell alexsaezm
golang-github-puerkitobio-urlesc alexsaezm
golang-github-quay-goval-parser eclipseo
golang-github-racingmars-go3270 dcavalca
golang-github-rcrowley-metrics alexsaezm
golang-github-remyoudompheng-bigfft eclipseo jchaloup
golang-github-revel  alexsaezm
golang-github-revel-log15 alexsaezm
golang-github-revel-pathtree alexsaezm
golang-github-rivo-uniseg jdoss
golang-github-rjeczalik-notify orphan
golang-github-robertkrimen-otto eclipseo jchaloup
golang-github-rogpeppe-fastuuid alexsaezm
golang-github-rs-cors alexsaezm
golang-github-rs-xid mikelo2
golang-github-rs-zerolog mikelo2
golang-github-rwcarlsen-goexif mikep
golang-github-schollz-cli-2 dcavalca
golang-github-schollz-croc dcavalca
golang-github-schollz-logger dcavalca
golang-github-schollz-mnemonicode dcavalca
golang-github-schollz-pake-3 dcavalca
golang-github-schollz-peerdiscovery dcavalca
golang-github-schollz-progressbar-2 dcavalca
golang-github-schollz-progressbar-3 dcavalca
golang-github-segmentio-ksuid gundersanne
golang-github-sgreben-flagvar orphan
golang-github-shiena-ansicolor jchaloup mikelo2
golang-github-shopify-logrus-bugsnag alexsaezm
golang-github-shopify-sarama alexsaezm
golang-github-shopify-toxiproxy eclipseo
golang-github-shopspring-decimal alexsaezm jchaloup
golang-github-shurcool-httpfs alexsaezm jchaloup
golang-github-shurcool-httpgzip alexsaezm jchaloup
golang-github-shurcool-vfsgen alexsaezm
golang-github-sirupsen-logrus alexsaezm
golang-github-skip2-qrcode fale
golang-github-smartystreets-assertions jchaloup mikelo2
golang-github-smartystreets-goconvey alexsaezm jchaloup
golang-github-smartystreets-gunit eclipseo
golang-github-snapcore-gettext bboozzoo zyga
golang-github-sony-gobreaker alexsaezm
golang-github-sophaskins-efs2tar dcavalca
golang-github-sourcegraph-annotate eclipseo jchaloup
golang-github-sourcegraph-jsonrpc2 mikelo2
golang-github-sourcegraph-syntaxhighlight eclipseo jchaloup
golang-github-spf13-cast mikelo2
golang-github-spyzhov-ajson eclipseo
golang-github-ssor-bom eclipseo
golang-github-stack  nathans
golang-github-stathat alexsaezm
golang-github-stoewer-strcase alexsaezm
golang-github-streadway-amqp logic
golang-github-streadway-handy alexsaezm
golang-github-stretchr-objx fale jchaloup mikelo2
golang-github-stretchr-testify fale jchaloup mikelo2
golang-github-subosito-gotenv qulogic
golang-github-syndtr-goleveldb jchaloup mikelo2
golang-github-tdewolff-minify qulogic
golang-github-tdewolff-parse qulogic
golang-github-tdewolff-test qulogic
golang-github-termie-shutil dfateyev
golang-github-test-deep eclipseo jchaloup mikelo2
golang-github-theupdateframework-notary alexsaezm
golang-github-tidwall-pretty mikelo2
golang-github-tinylib-msgp alexsaezm
golang-github-tj-assert mikep
golang-github-tmc-grpc-websocket-proxy alexsaezm
golang-github-tomasen-realip alexsaezm
golang-github-tscholl2-siec dcavalca
golang-github-ttacon-chalk alexsaezm
golang-github-tv42-httpunix mikelo2
golang-github-twinj-uuid alexsaezm
golang-github-twmb-murmur3 dcavalca
golang-github-twpayne-waypoint eclipseo
golang-github-u-root-iscsinl dcavalca
golang-github-uber-athenadriver eclipseo
golang-github-uber-tally alexsaezm
golang-github-ugorji alexsaezm
golang-github-urfave-cli alexsaezm
golang-github-urfave-cli-2 mikelo2 nathans
golang-github-urfave-negroni alexsaezm
golang-github-valyala-bytebufferpool alexsaezm
golang-github-valyala-fasttemplate alexsaezm
golang-github-vincent-petithory-dataurl blowry
golang-github-vividcortex-ewma jchaloup orphan
golang-github-vividcortex-gohistogram alexsaezm
golang-github-weppos-publicsuffix mikelo2
golang-github-x-cray-logrus-prefixed-formatter dcavalca
golang-github-xeonx-timeago alexsaezm
golang-github-xiang90-probing alexsaezm jchaloup
golang-github-xlab-treeprint alexsaezm
golang-github-xlzd-gotp mikelo2
golang-github-xo-terminfo eclipseo
golang-github-xordataexchange-crypt eclipseo
golang-github-xrash-smetrics mikelo2
golang-github-yuin-goldmark qulogic
golang-github-yuin-gopher-lua eclipseo jchaloup
golang-github-yvasiyarov-gorelic alexsaezm
golang-github-yvasiyarov-newrelic-platform alexsaezm
golang-github-zclconf-cty mikelo2
golang-github-ziutek-mymysql dcavalca
golang-github-zookeeper-zk alexsaezm
golang-github-zyedidia-glob eclipseo jchaloup
golang-github-zyedidia-pty eclipseo jchaloup
golang-github-zyedidia-terminal eclipseo jchaloup
golang-gitlab-commonmark-linkify eclipseo
golang-gitlab-esr-fqme dfateyev
golang-gonum-1       alexsaezm
golang-gopkg-alecthomas-kingpin-2 fuller
golang-gopkg-check-1 mikelo2
golang-gopkg-cheggaaa-pb-1 alexsaezm
golang-gopkg-gcfg-1  alexsaezm
golang-gopkg-h2non-gock-1 mikelo2
golang-gopkg-inf-0   mikelo2
golang-gopkg-logex-1 mikelo2
golang-gopkg-macaroon-1 eclipseo
golang-gopkg-mgo-2   eclipseo
golang-gopkg-natefinch-lumberjack-2 alexsaezm jchaloup
golang-gopkg-neurosnap-sentences-1 mikep
golang-gopkg-readline-1 alexsaezm jchaloup
golang-gopkg-redis-6 alexsaezm
golang-gopkg-russross-blackfriday-1 alexsaezm
golang-gopkg-russross-blackfriday-2 alexsaezm dfateyev
golang-gopkg-tylerb-is-1 dcavalca
golang-gopkg-warnings-0 mikelo2
golang-gorm          eclipseo
golang-jaytaylor-html2text eclipseo
golang-mvdan-editorconfig dcavalca
golang-mvdan-sh-3    dcavalca
golang-mvdan-xurls   alexsaezm
golang-nhooyr-websocket mikep
golang-rsc-pdf       mikelo2
golang-sourcegraph-appdash eclipseo
golang-sourcegraph-appdash-data eclipseo
golang-starlark      alexsaezm
golang-uber-atomic   mikelo2
golang-uber-config   eclipseo
golang-uber-dig      eclipseo
golang-uber-fx       eclipseo
golang-uber-multierr mikelo2
golang-uber-ratelimit mikelo2
golang-uber-zap      mikelo2
golang-x-arch        alexsaezm
golang-x-debug       alexsaezm jchaloup
golang-x-image       alexsaezm
golang-x-lint        alexsaezm
golang-x-term        alexsaezm
golang-x-tools       fuller qulogic
golang-x-xerrors     alexsaezm
gotags               orphan
gpick                luya
gpsim                rrankin
gqrx                 daveo jskarvad
grace                jamatos terjeros
grantlee-qt5         marcdeop
gravity-beams-and-evaporating-stars suve
gretl                hannes
greybird             kevin lbazan nonamedotc
grilo-plugins        victortoso
grimmer-proggy-squaresz-fonts bojan
grimmer-proggy-tinysz-fonts bojan
grin                 terjeros
gsequencer           jkraehemann nonamedotc
gsmartcontrol        vascom vtrefny
gssdp                ellert kalev mclasen
gst123               siddhesh
gstream              jwrdegoede
gstreamer-plugins-espeak chimosky wtaymans
gstreamer1-doc       limb wtaymans
gstreamer1-plugins-bad-free limb uraeus wtaymans yselkowitz
gstreamer1-rtsp-server limb wtaymans
gstreamer1-vaapi     farnz wtaymans
gstreamermm          rathann robert
gti                  ib54003
gtk+extra            rrankin
gtk-murrine-engine   raveit65 robert
gtk-sharp-beans      tpokorra
gtk-sharp2           laxathom rhughes rstrode tpokorra
gtk-sharp3           tpokorra
gtk-v4l              huzaifas
gtk2                 alexl mclasen mkasik rhughes rstrode
gtkdatabox           ework vascom
gtkimageview         nphilipp
gtkmm2.4             kalev mclasen
gtksourceview3       mclasen
gtksourceview4       decathorpe ngompa salimma
gtts                 pbrobinson
gtts-token           pbrobinson
gudev-sharp          tpokorra
guile30              tkorbar
guitarix             tartina verdurin
gummi                yselkowitz
gupnp-av             kalev mclasen
gupnp-dlna           kalev mclasen
gwenview             marcdeop nucleo than
gxemul               spot
h5py                 orion stevetraylen terjeros
halibut              jskarvad
hawknl               jwrdegoede
hawtjni              didiksupriadi41 mizdebsk mkoncek
hdf                  orion sagitter
heimdall             echevemaster jorti luk1337
hexer                jvanek
hid4java             jonny
hiredis              bugant cicku kevin orion
hitch                ingvar
horai-ume-fonts      kvolny
hpl                  jskarvad
htmlcxx              martinkg
htmltest             qulogic
htslib               jaruga
http_ping            alciregi
httperf              thm
httprobe             jonathanspw
hugs98               petersen
hxtools              cicku till
hylafax+             faxguy
hyperrogue           dulsi
i3-gaps              defolos
i3lock               cicku defolos fale
iagno                mclasen
ibm-plex-fonts       suraia
ibsim                honli
ibus-table-chinese   mfabian pwu
icc-profiles-basiccolor-printing2009 kwizart
icc-profiles-openicc kwizart
icestorm             lkundrak somlo
id3lib               adrian amigadave
iguanaIR             leamas
imapsync             jonathanspw nb
imaptest             robert
inertiablast         dulsi
infinipath-psm       honli
inkscape-psd         moceap
innoextract          adetiste moceap
insight              lkundrak monnerat
intel-compute-runtime aekoroglu androniychuk frantisekz rathann
intel-igc            aekoroglu androniychuk frantisekz
intel-mediasdk       aekoroglu rathann
intel-opencl-clang   aekoroglu androniychuk frantisekz
intelhex             pbrobinson
iodine               somlo
ipa-gothic-fonts     tagoh
ipa-mincho-fonts     tagoh
ipa-pgothic-fonts    tagoh
ipa-pmincho-fonts    tagoh
ipe                  nonamedotc
ipmctl               aekoroglu
ipmiutil             orphan
iptstate             psutter salimma
irrlicht             orion spot
isl                  dhowells jakub law
iso-country-flags    tieugene
itcl                 krege orion
itk                  krege orion
itop                 flo
ivykis               czanik
iwidgets             krege orion
iwyu                 xvitaly
iyfct                mystro256
jack-audio-connection-kit nphilipp rathann tartina
jack-keyboard        tartina
jack-mixer           vtrefny
jacoco               didiksupriadi41 jvanek
jaero                vascom
jakarta-el           mbooth
jakarta-interceptors korkeala
jakarta-saaj         didiksupriadi41 mkoncek
jakarta-server-pages korkeala
jakarta-xml-ws       didiksupriadi41
jalv                 tartina
java-latest-openjdk  ahughes jerboaa jvanek pmikova
java-latest-openjdk-portable ahughes jandrlik jerboaa jvanek pmikova zzambers
java-packaging-howto mizdebsk mkoncek
jaxen                jwrdegoede mizdebsk mkoncek
jc                   salimma suve
jchardet             mbooth mizdebsk mkoncek orion
jemalloc             ingvar
jericho-html         terjeros
jetty                mbooth mizdebsk mkoncek
jfreechart           didiksupriadi41 lkundrak
jgoodies-common      melmorabity
jgoodies-forms       melmorabity
jgoodies-looks       melmorabity
jid                  eclipseo
jigawatts            jvanek
jmock                didiksupriadi41
jopt-simple          mbooth mizdebsk mkoncek
joystick-support     bruno
jpanoramamaker       jvanek
jpcre2               rathann
js-jquery            orion
js-jquery-mousewheel bowlofeggs ellert
js-jquery-ui         ellert
js-jquery-ui-touch-punch ellert
js-responsive-elements bowlofeggs
jsch-agent-proxy     mbooth mizdebsk mkoncek
json-fortran         jussilehtola
json-parser          aekoroglu fkooman
jtc                  defolos
jtidy                mizdebsk mkoncek spike
jwm                  aekoroglu
jxrlib               smani
kBuild               laxathom lkundrak ngompa
kactivities          than
kakoune              atim jkonecny
kalibrate-rtl        jskarvad
kapman               than
kasts                thunderbirdtr
katomic              than
kawa                 korkeala
kblackbox            than
kblocks              than
kbounce              than
kbrickbuster         jgrulich than
kcachegrind          jgrulich marcdeop
kcolorchooser        than
kdb                  marcdeop
kde-baseapps         than
kde-i18n             kkofler than
kde-l10n             than
kde-runtime          jgrulich kkofler than
kdebugsettings       marcdeop
kdegames3            kkofler than
kdepimlibs           jgrulich than
kdialog              marcdeop than
kdiamond             than
kdsoap               farchord tdawson
keditbookmarks       marcdeop than
keepassxc            germano mikelo2 nonamedotc
kernel               acaringi airlied ajax jcline jforbes jwboyer jwrdegoede linville myoung patrickt sandeen steved
keybinder3           kevin m4rtink
kf5-baloo            farchord jgrulich than
kf5-kblog            farchord
kf5-kdelibs4support  farchord jgrulich than
kf5-kdesignerplugin  farchord jgrulich than
kf5-kdewebkit        farchord jgrulich than
kf5-khtml            farchord jgrulich than
kf5-kirigami         farchord
kf5-kirigami2        farchord
kf5-kjs              farchord jgrulich than
kf5-kjsembed         farchord jgrulich
kf5-libkcddb         farchord than
kfc                  dcavalca
kfind                marcdeop than
kfourinline          than
kget                 jkucera than
kgoldrunner          than
khal                 mathstuf mbaldessari
kigo                 than
killbots             than
kiln                 eclipseo
kirc                 dcavalca
kiriki               than
kjumpingcube         than
klickety             than
klines               than
kmahjongg            than
kmid2                cheeselee kkofler
kmodtool             hobbes1069 kwizart leigh123linux nvieville slaanesh
kmplayer             moceap
kmscon               jfalempe
knavalbattle         than
knetwalk             than
knotes               marcdeop than
koji-containerbuild  cverna
koko                 aleasto
kolf                 than
kollision            than
kolourpaint          than
kongress             aleasto thunderbirdtr
konqueror            marcdeop than
konquest             than
kontact              marcdeop than
kpat                 than
kphotoalbum          marcdeop nucleo
kproperty            marcdeop
kqoauth-qt5          martinkg
krdc                 than
kreport              aleasto
kreversi             than
kshisen              than
ksirk                marcdeop than
ksnakeduel           than
kspaceduel           than
ksquares             than
kstart               ktdreyer orion stevetraylen
ksudoku              marcdeop than
kubrick              than
kuser                kkofler
kuserfeedback        tdawson zawertun
kwave                ngompa
kwayland-server      jgrulich mkyral
kwebkitpart          nucleo than
kyua                 jonathanspw
labiryntowy-fonts    aekoroglu
ladspa               dcavalca ngompa wtaymans
lasi                 orion
laughlin-kde-theme   q5sys than
lazarus              suve
ldc                  cicku kalev
lector               aekoroglu
lensfun              germano grahamwhiteuk nphilipp trix
leonidas-kde-theme   q5sys than
leptonica            dchen smani
leveldb              peter stevetraylen tchaikov
levien-inconsolata-fonts kevin
lgogdownloader       blowry
lib765               vtrefny
libFS                ajax alexl bentiss rhughes rstrode
libHX                till
libXfont             ajax alexl bentiss rhughes rstrode
libXpresent          kevin raveit65
libXvMC              ajax alexl bentiss rhughes rstrode
libXxf86dga          ajax alexl bentiss jexposit rhughes rstrode
libXxf86misc         ajax alexl bentiss rhughes rstrode
libacars             vascom
libaccounts-glib     marcdeop
libaec               junghans
libaesgm             orion spot
libalkimia           farchord
libappindicator      dcavalca echevemaster ngompa salimma tpokorra
libarcus             churchyard
libart               dcavalca
libart_lgpl          alexl rhughes rstrode yselkowitz
libass               ngompa xavierb
libast               terjeros
libax25              hobbes1069
libbatch             smani
libbonobo            alexl rhughes rstrode trawets
libbonoboui          alexl rhughes rstrode trawets
libbs2b              kvolny
libcaca              slaanesh xavierb
libcacard            crobinso elmarco jjelen jwrdegoede teuf
libcerf              jamatos junghans tdawson
libcgi               spot
libcgif              remi
libcgroup            jchaloup nforro
libchamplain         kalev mclasen
libchardet           martinkg
libcint              jussilehtola
libcircle            junghans
libclaw              lkundrak martinkg xavierb
libcmpiutil          trawets
libcoap              pbrobinson
libcompizconfig      jskarvad
libcorrect           vascom
libcryptui           raveit65
libcutl              sagitter
libdasm              rebus
libdbi               fjanus jonathanspw limb
libdbi-drivers       fjanus limb
libdbusextended-qt5  zsun
libdigidocpp         cserpentis germano
libdnet              carlosrodrifernandez
libdockapp           sham1
libdrm-armada        lkundrak
libecpint            junghans
libefp               jussilehtola
libesmtp             dcavalca jonathanspw jskarvad
libetnaviv           lkundrak
libevdevPlus         ngompa wef
libfep               ueno
libfilteraudio       eclipseo
libftdi              hobbes1069 robert sharkcz
libfullock           hiwkby
libgadu              rathann
libgamerzilla        dulsi
libgdamm             spot
libgdata             rishi
libgdiplus           laxathom rhughes rstrode tpokorra
libgeotiff           devrim orion smani
libgepub             kalev mclasen rishi
libgit2              decathorpe sgallagh
libgit2-glib         ignatenkobrain kalev ngompa
libglade2            alexl rhughes rstrode yselkowitz
libgle               ajax
libglib-testing      kalev mclasen
libglpng             jwrdegoede
libgnome             alexl rhughes rstrode trawets
libgnome-keyring     mclasen rishi
libgnomecanvas       alexl rhughes rstrode yselkowitz
libgnomecanvasmm26   nphilipp verdurin
libgpod              alexl chkr limb rhughes rstrode teuf tpokorra
libgta               jkucera tdawson
libibcommon          dcavalca honli michich slaanesh steved
libicns              hobbes1069 musuruan xavierb
libiec61883          nphilipp slaanesh
libime               yanqiyu
libinjection         ngompa
libirman             leamas ondrejj
libjoedog            besser82 cdamian
libkcddb             than yselkowitz
libkdegames          than
libkeduvocdocument   marcdeop
libkrunfw            slp
liblbfgs             smani
liblinear            besser82
liblo                nphilipp salimma tartina
liblxqt              tieugene zsun
liblzf               stevetraylen
libmash              rhughes
libmatekbd           raveit65 robert
libmateweather       raveit65 robert
libmatroska          kwizart ngompa rathann
libmcrypt            remi spot
libmikmod            aekoroglu jwrdegoede
libmodbus            sandeen
libmodman            trawets
libmp4v2             amigadave rathann
libmpris-qt5         cheeselee zsun
libmusicbrainz5      teuf
libmygpo-qt          marcdeop
libmypaint           nphilipp
libnetfilter_acct    hushan
libnova              huzaifas
liboauth             salimma
liboil               ajax alexl rhughes rstrode trawets
libopkele            kevin
libopusenc           pbrobinson
libotr               pwouters
libpgf               nucleo orion tdawson
libphonenumber       ngompa thunderbirdtr
libpng               mhlavink nforro phracek
libpng12             mhlavink nforro phracek
libpng15             mhlavink nforro phracek
libpqxx              besser82 mkrupcale
libprojectM          ngompa
libpsm2              honli kheib michich
libqtxdg             cicku lkundrak tieugene zsun
libqxt-qt5           martinkg
librabbitmq          remi
libraqm              moceap
libraw1394           nphilipp
librcd               kvolny
libresample          jsmith
libretro-gw          atim
libretro-handy       atim
libretro-pcsx-rearmed atim
librs232             dwrobel
libsafec             aekoroglu
libscrypt            dfateyev
libsecp256k1         jonny peter slaanesh
libsexy              spot
libshout             jskarvad ngompa
libsoundio           jskarvad
libspf2              bojan
libspnav             hobbes1069
libsqlite3x          sailer tachoknight
libtar               huzaifas kdudka
libtermkey           asn salimma
libtoml              jeckersb
libtool              fberat fjanus jakub kasal praiskup
libtree              fnux
libtree-ldd          mikelo2
libtwin              dwmw2
libu2f-host          jonathanspw
libu2f-server        jonathanspw
libuInputPlus        ngompa wef
libucl               fnux
libuev               alciregi
libuninum            terjeros
libupnp              ajax cicku jdieter kwizart limb rathann slaanesh
libusb-compat-0.1    benzea smallorange
libusb1              benzea jwrdegoede smallorange victortoso
libusbauth-configparser kochstefan
libva-utils          kwizart
libva-v4l2-request   kwizart rathann
libvidcap            spot
libvirt-java         trawets
libvirt-python       berrange
libvirt-sandbox      jonathanspw
libvterm             asn salimma
libwebsockets        fab pbrobinson
libwfut              bruno
libwnck              alexl jonathanspw rhughes rstrode
libwpg               dtardon
libwvstreams         jskarvad msekleta thozza
libx86               jcpunk
libxdiff             spot
libxfce4ui           kevin nonamedotc orion
libxfce4util         kevin nonamedotc
libxo                kanitha
libyubikey           nb wzzrd
libyui               jonathanspw ngompa thunderbirdtr
libyui-gtk           jonathanspw ngompa thunderbirdtr
libyui-mga           jonathanspw ngompa thunderbirdtr
libyui-mga-gtk       jonathanspw ngompa thunderbirdtr
libyui-mga-ncurses   ngompa thunderbirdtr
libyui-mga-qt        jonathanspw ngompa thunderbirdtr
libzdb               cicku jujens
lightdm-autologin-greeter ngompa
lilv                 nphilipp tartina
linux-firmware       dwmw2 jforbes jwboyer pbrobinson
linux-system-roles   ngompa pcahyna rmeggins spetros till
liquid-dsp           hobbes1069
lirc                 hobbes1069 kni leamas seanyoung
lis                  flo
llconf               ppisar
lld13                petersen sergesanspaille
lldpd                aconole
llvm11               petersen sergesanspaille tstellar
llvm12               petersen sergesanspaille
llvm13               petersen sergesanspaille
lmfit                churchyard junghans
lmms                 thm
lnav                 cicku pschiffe
log4c                stevetraylen valtri
log4cpp              stevetraylen
lolcat               cheese
lookup               mspacek
lordsawar            bruno
lovelock-kde-theme   q5sys than
lpairs               szpak
lpcnetfreedv         hobbes1069 robert
lpf                  leamas slaanesh
lrmi                 pwouters
lskat                than
lsw                  psabata
lua-alt-getopt       salimma
lua-argparse         caleb jonny
lua-basexx           jruzicka pspacek
lua-binaryheap       jruzicka
lua-bit32            asn salimma
lua-bitop            asn jruzicka orion
lua-compat53         jruzicka salimma
lua-coxpcall         fed500
lua-cqueues          jruzicka
lua-dbi              robert
lua-event            robert
lua-expat            robert
lua-fifo             jruzicka
lua-filesystem       robert salimma
lua-http             jruzicka
lua-inotify          salimma
lua-json             orion salimma
lua-ldap             chkr
lua-ldoc             thm
lua-lgi              thm
lua-loop             salimma
lua-lpeg             asn salimma
lua-lpeg-patterns    jruzicka
lua-luaossl          jruzicka
lua-lunitx           orion salimma
lua-lxc              thm
lua-markdown         thm
lua-md5              kevin
lua-mmdb             jruzicka
lua-moonscript       salimma
lua-mosquitto        dwrobel
lua-mpack            asn salimma
lua-penlight         thm
lua-posix            orion robert salimma
lua-psl              jruzicka
lua-readline         robert salimma
lua-sec              robert
lua-socket           robert
lua-sql              salimma
lua-term             orion
lua-unbound          robert
luabind              spot
luajit               asn siddhesh
luarocks             ktdreyer salimma
luit                 ajax ofourdan thomas-dickey
lumina-desktop       tieugene
lutok                mrc0mmand
lv2                  nphilipp slaanesh tartina
lv2-mdala-plugins    vascom
lxc                  sagarun thm
lxqt-about           sfaulken tieugene
lxqt-openssh-askpass sfaulken tieugene
lzma-sdk457          spot
mISDN                dwmw2
maeparser            fuller sagitter
maliit-framework     chimosky marcdeop
maliit-keyboard      jgrulich thunderbirdtr
mallard-rng          amigadave
man-pages-l10n       ljavorsk mfabian nforro
mangohud             atim
mapserver            devrim jujens neil pali smani
marco                raveit65 robert
marked               sdgathman
mate-applets         raveit65 robert
mate-control-center  raveit65 robert
mate-desktop         raveit65 robert
mate-icon-theme      raveit65 robert
mate-media           raveit65 robert
mate-menu            raveit65 robert
mate-menus           raveit65 robert
mate-panel           raveit65 robert
mate-polkit          raveit65 robert
mate-screensaver     raveit65 robert
mate-utils           raveit65 robert
mathjax              ellert zbyszek
mathomatic           terjeros
maven-native         deamn
mcrouter             salimma
mdbtools             jwrdegoede lkundrak
mdk                  filiperosset
meanwhile            slaanesh
media-player-info    mclasen
mediaconch           vascom
mednafen             belegdol
megaglest-data       vtrefny
memchan              spot
metapixel            filiperosset
micro                eclipseo
micronucleus         lkundrak
miglayout            hanecak
migrationtools       than
mikmod               aekoroglu jwrdegoede phracek
milter-greylist      pghmcfc
mimalloc             vascom
mimetic              cicku dfateyev
mimic                pbrobinson
minetest             bookwar ignatenkobrain limb
mingw-SDL_image      kalev smani
mingw-angleproject   smani
mingw-atk            kalev rjones smani
mingw-brotli         etrunko
mingw-bzip2          elmarco etrunko rjones
mingw-c-ares         valtri
mingw-cairomm        rjones sailer
mingw-colord         rhughes
mingw-curl           mooninite
mingw-drmingw        sailer
mingw-expat          rjones smani
mingw-fcgi           smani
mingw-fontconfig     rjones smani
mingw-freeglut       rjones
mingw-glew           smani
mingw-goocanvas2     kalev smani
mingw-graphene       elmarco
mingw-graphite2      smani
mingw-gsl            nucleo rjones
mingw-gsm            valtri
mingw-gtkmm24        elmarco rjones sailer
mingw-gtksourceview3 kalev smani
mingw-hamlib         hobbes1069
mingw-harfbuzz       kalev smani
mingw-id3lib         amigadave
mingw-jansson        smani
mingw-jimtcl         sailer
mingw-jsoncpp        ngompa
mingw-lcms           sailer
mingw-lcms2          sailer
mingw-libarchive     mooninite
mingw-libconfuse     sailer
mingw-libcroco       rhughes
mingw-libepoxy       kalev smani teuf
mingw-libftdi        sailer
mingw-libgamerzilla  dulsi
mingw-libgcrypt      elmarco etrunko rjones teuf
mingw-libglade2      rjones sailer
mingw-libglademm24   rjones sailer
mingw-libgnurx       rjones
mingw-libgpg-error   elmarco etrunko rjones teuf
mingw-libgta         smani
mingw-libimagequant  smani
mingw-libltdl        ndim
mingw-libmicrohttpd  mooninite
mingw-libogg         kraxel
mingw-libpsl         etrunko
mingw-libsigc++20    rjones sailer
mingw-libsqlite3x    rjones sailer
mingw-libtiff        mooninite orion
mingw-libvorbis      kalev smani
mingw-libxml++       rjones sailer
mingw-libxml2        rjones
mingw-libxslt        kalev orion rjones smani
mingw-llvm           smani
mingw-log4c          valtri
mingw-mpfr           sailer
mingw-openssl        elmarco etrunko rjones teuf
mingw-opus           valtri
mingw-orc            elmarco mooninite rjones
mingw-plotmm         rjones sailer
mingw-portablexdr    elmarco rjones
mingw-postgresql     mooninite
mingw-python-affine  smani
mingw-python-chardet smani
mingw-python-charset-normalizer smani
mingw-python-ephem   smani
mingw-python-pyparsing smani
mingw-python-pyproj  smani
mingw-python-pytz    smani
mingw-python-pyyaml  smani
mingw-python-setuptools smani
mingw-python-six     smani
mingw-python-tomli   smani
mingw-python-urllib3 smani
mingw-qextserialport smani
mingw-qt5-qtscript   smani
mingw-rest           elmarco etrunko
mingw-sparsehash     sailer
mingw-spatialindex   smani
mingw-speexdsp       orphan
mingw-spice-gtk      elmarco etrunko rjones teuf victortoso
mingw-spice-protocol elmarco etrunko kraxel teuf victortoso
mingw-spirv-headers  smani
mingw-tcl            rjones sailer
mingw-tk             smani
mingw-twaindsm       smani
mingw-usbredir       elmarco jwrdegoede teuf victortoso
mingw-windows-default-manifest c72578
mingw-wine-gecko     mooninite
mingw-wpcap          rjones sailer
mingw-yaml-cpp       smani
mingw-zfstream       rjones sailer
minisign             fkooman
miniupnpc            slaanesh
miniupnpd            mooninite
mint-y-icons         leigh123linux
mirmon               cicku jonathanspw rcallicotte
mk-files             fnux
mkdocs-material      dcavalca
mlmmj                dfateyev
mlt                  martinkg ngompa
mlton                agoode rjones
mm                   ixs
mmtf-cpp             sagitter
mnmlicons-fonts      leamas
mock-centos-sig-configs dcavalca ngompa salimma
mod_auth_openid      kevin
mod_log_post         robert
mod_mono             tpokorra
module-build         mcurlej
monafont             mtasaka
mongoose             aquini jkastner
mono-addins          tpokorra
mono-basic           tpokorra
mono-bouncycastle    kalev
mono-cecil           tpokorra
mono-cecil-flowanalysis spot
mono-reflection      spot
mono-tools           laxathom tpokorra
mono-zeroconf        tpokorra
monocypher           patrikp
mosquitto            jonathanspw pbrobinson
motif                jexposit limb twoerner
mousetweaks          mclasen
mozilla-ublock-origin rathann
mozilla-zilla-slab-fonts ngompa
mozo                 raveit65 robert
mp3fs                sdgathman
mp3gain              kvolny
mplus-fonts          aekoroglu
mpqc                 cicku mtasaka
mpris-scrobbler      gbcox jflory7
mpssh                ingvar
mqtt-randompub       pbrobinson
mrrescue             mystro256
msimonson-anonymouspro-fonts fed500
msoffcrypto-tool     rebus robert
multimarkdown        yselkowitz
multimedia-menus     eeickmeyer
multitail            jussilehtola kashyapc mikelo2
multiwatch           xavierb
mum-hash             fnux
mup                  gbailey
mupen64plus          dcavalca dreua ngompa
muse                 orphan
musl                 ngompa salimma
mxparser             didiksupriadi41 sbluhm
mycli                fale jonathanspw terjeros
mygui                chapien
mypaint              yselkowitz
mysql-connector-net  mschorm tpokorra
mysql-connector-odbc ljavorsk mschorm psloboda
nanomsg              cottsay
nas                  ppisar
nativejit            sagitter
nawk                 mmckinst
nbc                  dcavalca
ncdc                 aekoroglu cicku
ncl                  orion
ncrack               rebus
ndesk-dbus           tpokorra
ndesk-dbus-glib      tpokorra
nemo                 leigh123linux
neomutt              flatcap steve
nes_ntsc             dtimms
netatalk             cicku kni
netbsd-iscsi         lkundrak
netcdf4-python       orion
nethack-vultures     bruno
newtonsoft-json      tpokorra
nextcloud            kni
nextpnr              lkundrak somlo
nexus                sic
nfs-utils            bfields steved
nfswatch             c4chris
nginx-mod-vts        daxelrod dminer heffer mikelo2 ngompa
ngspice              mtasaka
nickle               salimma
nmh                  levined
nng                  stevenfalco
nodejs-acorn-object-spread jsmith
nodejs-backbone      aekoroglu
nodejs-bash-language-server asn pfilipen
nodejs-buble         jsmith
nodejs-colors        jsmith
nodejs-linefix       jsmith
nodejs-packaging     aradchen jstanek mrunge sgallagh tjuhasz
nodejs-replace-require-self jsmith
nodejs-underscore    orphan
noggin               jonathanspw ngompa
nomacs               tieugene
notify-sharp         tpokorra
notify-sharp3        tpokorra
nqc                  dcavalca
ns-bola-fonts        aekoroglu
ns-tiza-chalk-fonts  aekoroglu
nsca-ng              filiperosset
nss_nis              anezbeda fjanus osloup pkubat
numlockx             drago01
nunit                tpokorra
nunit2               tpokorra
nv-codec-headers     kwizart xavierb
nvidia-query-resource-opengl kwizart
nvidia-texture-tools kalev limb
nwg-panel            ngompa
nyancat              ttomecek
obfs4                hedayat
obs-service-rust2rpm ngompa
ocaml-base64         cheeselee rjones
ocaml-cmdliner       rjones
ocaml-curl           dchen rjones
ocaml-sedlex         andyli
ocaml-sha            andyli
ochusha              mtasaka
oclock               aarem
ocproxy              raphgro
octave-general       orion sailer
octave-interval      cbm orion sailer
octave-io            orion
octave-optim         sailer
octave-specfun       sailer
octave-zmat          fangq
octomap              cottsay rineau
oddjob-gpupdate      pfilipen
officeparser         rebus
oflb-dignas-handwriting-fonts musuruan
oflb-smonohand-fonts salimma
ogdi                 sharkcz
ogr2osm              musuruan
ogre                 dtimms ignatenkobrain jwrdegoede
ois                  bruno cottsay
okteta               jgrulich marcdeop than
ooo2txt              ppisar
opae                 trix
opal                 peter pfrields
open-eid             cserpentis germano
open-mtools          ppisar
openal-soft          fcami jwrdegoede tdawson
openarc              prgutier
openbox-theme-mistral-thin ngompa
openbox-theme-mistral-thin-dark ngompa
openconnect-gateway  raphgro
opendyslexic-fonts   spot
openelp              cottsay
openiked             hargonix
openlibm             nalimilan
openlierox           jwrdegoede
openmeeg             sagitter
openmpi              jonathanspw orion
openni               cottsay jkastner
openrdate            fjanus
openresolv           pemensik
opensmtpd            dfateyev
openspecfun          nalimilan orion
openssh-ldap-authkeys ngompa
opentoonz            dherrera
openvpn-auth-ldap    robert
ophcrack             alciregi
optipng              hanecak
opus-tools           pbrobinson
orafce               fjanus osloup pkubat praiskup
orangefs             terjeros
orthorobot           mystro256
osbs-client          cverna maxamillion twaugh
otf2bdf              yangrr
otter-browser        martinkg
overlayfs-tools      rathann
oxygen-fonts         jgrulich marcdeop than
oxygen-gtk2          marcdeop nucleo
oz                   clalance
p11-remote           lkundrak
p7zip                dcavalca salimma
packmol              jussilehtola
palapeli             than
pam_afs_session      ktdreyer
pam_krb5             jcpunk
pam_yubico           nb wzzrd
parallel             filiperosset golfu mikelo2
passivetex           ovasik
pax                  ovasik pkubat praiskup
pcfi                 orion
pcsc-lite-acsccid    jjelen
pcsc-lite-asekey     ppisar
perl-Algorithm-Loops eclipseo
perl-Best            iarnell jplesnik ppisar
perl-CGI-Struct      eseyman
perl-Cairo           spot
perl-Catalyst-Plugin-Cache eseyman iarnell
perl-Config-Model-CursesUI eseyman hvad jplesnik
perl-Config-Model-Itself eseyman hvad jplesnik
perl-ConfigReader    ixs orion
perl-Date-Holidays-DE robert
perl-Diff-LibXDiff   ngompa
perl-Dir-Manifest    shlomif
perl-EBook-EPUB      eseyman
perl-Encode-HanExtra xavierb
perl-Eval-LineNumbers eseyman
perl-FCGI-ProcManager eseyman jplesnik ppisar
perl-File-FindLib    eseyman
perl-GStreamer1      ppisar
perl-Games-Solitaire-Verify shlomif
perl-Geography-Countries pghmcfc spot
perl-Gnome2-GConf    jplesnik ppisar
perl-Gnome2-Vte      ppisar
perl-Gtk2            spot
perl-Gtk2-Ex-FormFactory ppisar
perl-Gtk2-Ex-Utils   jplesnik ppisar
perl-Gtk2-GladeXML   jplesnik ppisar
perl-Gtk2-Notify     jplesnik ppisar
perl-Gtk2-Sexy       jplesnik ppisar
perl-Gtk2-Spell      jplesnik ppisar
perl-Gtk2-TrayIcon   jplesnik ppisar
perl-HTML-HTML5-Entities eseyman jplesnik
perl-HTML-HTML5-Sanity eseyman
perl-HTML-Template-Pro eseyman lkundrak
perl-HTTP-Link-Parser ppisar
perl-HTTP-Soup       eseyman
perl-Hijk            eseyman
perl-Icon-FamFamFam-Silk jplesnik ppisar
perl-Image-Base      spot xavierb
perl-Image-Size      spot xavierb
perl-JSON-Create     ppisar
perl-Library-CallNumber-LC eseyman
perl-Locale-Maketext-Fuzzy spot
perl-Mail-RFC822-Address ixs sbluhm
perl-Math-Random-ISAAC eseyman
perl-Math-Random-ISAAC-XS eseyman
perl-Math-Random-MT  shlomif
perl-Module-Install-Contributors jplesnik ppisar
perl-Module-Install-Copyright jplesnik ppisar
perl-Module-Install-TrustMetaYml jplesnik ppisar
perl-Module-Package-RDF ppisar
perl-Mojo-RabbitMQ-Client eseyman
perl-MooX-Role-Parameterized ppisar
perl-MooseX-ArrayRef eseyman jplesnik
perl-MooseX-AttributeShortcuts eseyman jplesnik
perl-MooseX-MarkAsMethods eseyman jplesnik
perl-MooseX-Meta-TypeConstraint-Mooish eseyman jplesnik
perl-MooseX-Role-Tempdir eseyman jplesnik ppisar
perl-MooseX-Role-XMLRPC-Client eseyman iarnell jplesnik ppisar
perl-MooseX-TraitFor-Meta-Class-BetterAnonClassNames eseyman
perl-MooseX-Util     eseyman
perl-MusicBrainz-DiscID gbcox
perl-Net-Patricia    kevin philipp
perl-Net-Server-Coro eseyman
perl-Net-UPnP        ppisar xavierb
perl-NetPacket       ppisar
perl-PSGI            eseyman jplesnik ppisar
perl-Pango           spot
perl-PatchReader     eseyman
perl-PerlX-Maybe-XS  ppisar
perl-RDF-Prefixes    jplesnik ppisar
perl-RDF-TriN3       jplesnik ppisar
perl-Reply           jplesnik ppisar
perl-Sentry-Raven    xavierb
perl-Sort-MergeSort  dfateyev
perl-Spreadsheet-ParseXLSX qulogic
perl-Statistics-Basic jplesnik ppisar
perl-TAP-SimpleOutput jplesnik ppisar
perl-Term-ShellUI    cra echevemaster eseyman xavierb
perl-Test-Data-Split shlomif
perl-Test-Mock-Time  eseyman
perl-Test-Moose-More jplesnik ppisar
perl-Test-Run        jplesnik ppisar
perl-Test-Run-CmdLine jplesnik ppisar
perl-Test-RunValgrind shlomif
perl-Text-Sprintf-Named jplesnik ppisar
perl-Text-Table      eseyman jplesnik ppisar
perl-Time-Moment     dfateyev
perl-Tk-TableMatrix  eseyman xavierb
perl-Unix-Process    jplesnik ppisar
perl-WWW-Search      xavierb
perl-XML-Atom-OWL    ppisar
perl-XML-LibXML-Debugging ppisar
perl-XML-LibXML-Devel-SetLineNumber jplesnik ppisar
perl-XML-LibXML-PrettyPrint jplesnik ppisar
perl-autobox-Junctions jplesnik ppisar
perl-libwhisker2     ppisar
pew                  tadej
pfstools             tsmetana
pg-semver            msrb
pg_activity          mikelo2
pg_auto_failover     fjanus osloup
pgp-tools            fale lkundrak
pgpdump              cicku nb turboben
phodav               elmarco teuf
phonon               marcdeop than
phonon-backend-gstreamer marcdeop than
php-Monolog          siwinski
php-PHPParser        remi siwinski
php-PsrLog           remi
php-bacon-qr-code2   remi
php-brick-varexporter remi
php-cache-integration-tests siwinski
php-cache-tag-interop siwinski
php-composer-ca-bundle remi
php-composer-metadata-minifier remi
php-composer-pcre    remi
php-composer-xdebug-handler remi
php-composer-xdebug-handler2 remi
php-doctrine-collections remi siwinski
php-doctrine-deprecations remi
php-doctrine-event-manager remi
php-doctrine-inflector remi siwinski
php-doctrine-inflector2 remi
php-doctrine-instantiator remi
php-doctrine-lexer   remi siwinski
php-doctrine-sql-formatter remi
php-egulias-email-validator2 remi
php-fedora-autoloader remi siwinski
php-feedcreator      xavierb
php-felixfbecker-advanced-json-rpc3 remi
php-fig-http-message-util remi
php-gettext-gettext  petersen suanand
php-guzzlehttp-promises siwinski
php-http-interop-http-middleware remi
php-http-message-factory remi
php-iamcal-lib-autolink remi
php-icewind-smb2     remi
php-justinrainbow-json-schema5 remi
php-khanamiryan-qrcode-detector-decoder remi
php-league-container4 remi
php-league-flysystem remi
php-league-mime-type-detection remi
php-league-plates    remi
php-league-tactician remi
php-libvirt          ngompa
php-liuggio-statsd-php-client mooninite
php-masterminds-html5 siwinski
php-microsoft-tolerant-php-parser remi
php-mnapoli-phpunit-easymock siwinski
php-mock-integration2 remi
php-mock-phpunit2    remi
php-mock2            remi
php-mtdowling-jmespath-php siwinski
php-myclabs-deep-copy remi
php-myclabs-php-enum remi
php-nikic-php-parser3 remi
php-oauth            fkooman remi
php-ocramius-code-generator-utils remi siwinski
php-oojs-oojs-ui     mooninite
php-paragonie-constant-time-encoding fkooman
php-pear-Console-Table remi
php-pear-Crypt-Blowfish xavierb
php-pear-Crypt-CHAP  remi xavierb
php-pear-Date        remi
php-pear-HTML-Template-IT hvad
php-pear-HTTP-Request remi
php-pear-MDB2        remi
php-pear-MDB2-Driver-mysqli remi
php-pear-MDB2-Driver-pgsql remi
php-pear-Mail-mimeDecode remi
php-pear-Net-Curl    kevin remi
php-pear-Net-IDNA2   terjeros
php-pear-Net-URL     remi
php-pear-XML-Parser  remi
php-pear-math-biginteger remi
php-pecl-ds          remi
php-pecl-krb5        remi
php-pecl-yaml        remi
php-phar-io-manifest remi
php-phar-io-version  remi
php-phpdocumentor-reflection-common2 remi
php-phpdocumentor-reflection-docblock5 remi
php-phpdocumentor-type-resolver1 remi
php-phpseclib        remi suve
php-phpspec-prophecy remi
php-phpspec-prophecy-phpunit remi
php-phpunit-git      remi
php-phpunit-php-timer3 remi
php-phpunitgoodpractices-polyfill remi
php-psr-cache        siwinski
php-psr-container    remi
php-psr-container2   remi
php-psr-event-dispatcher remi
php-psr-http-factory remi
php-psr-http-message siwinski
php-psr-http-server-handler remi
php-psr-http-server-middleware remi
php-psr-link         siwinski
php-psr-simple-cache siwinski
php-samyoul-u2f-php-server remi
php-seld-cli-prompt  remi
php-seld-phar-utils  remi
php-swaggest-json-diff remi
php-swaggest-json-schema remi
php-symfony-contracts2 remi
php-symfony-requirements-checker remi
php-twig             siwinski
php-webimpress-http-middleware-compatibility remi
php-webimpress-safe-writer remi siwinski
php-webmozart-assert siwinski
php-wikimedia-assert mooninite
php-zordius-lightncandy mooninite
php-zstd             remi
php-zumba-json-serializer remi
phpcpd               remi
physfs               spot
picmi                than
pidgin               jskarvad nosnilmot
pidgin-chime         dwmw2 mcrha
pigeonascent         dulsi
pilot-link           alexlan jchaloup nforro
pimd                 linville
pinpoint             bytehackr
pinta                tpokorra
pipewire0.2          wtaymans
pkcs11-dump          kalev
plasma-applet-translator tdawson vascom
plasma-mobile-sounds farchord
plasma-workspace     jgrulich marcdeop than
playitagainsam       churchyard
plee-the-bear        jwrdegoede martinkg spot
plexus-interactivity mizdebsk mkoncek
plib                 jwrdegoede
plotmm               nphilipp
plplot               orion
pluma                raveit65 robert
plymouth-theme-hot-dog wwoods
pnglite              lkundrak
poedit               c72578
polari               aekoroglu
poly2tri             churchyard cottsay
polybar              atim
portaudio            jwrdegoede peter salimma
postfix-mta-sts-resolver thebeanogamer
postgresql-ip4r      devrim fjanus praiskup
postgresql-pgpool-II devrim fjanus osloup praiskup
pothana2000-fonts    aekoroglu
povray               corsepiu
powerline            salimma sicherha
pptpd                jskarvad
preeny               jskarvad
prestopalette        dagostinelli
prettyping           suve
primer3              pingou
primesieve           walki
prison               topazus
procdump             jfaracco
progman              dcavalca
prosody              robert
proxytunnel          jonathanspw
prwd                 cicku dfateyev
psi-notify           salimma
psi4                 jussilehtola
pslib                orion
pspg                 praiskup
pssh                 jcpunk terjeros
ptlib                peter
pugixml              hobbes1069
pure-ftpd            jonathanspw
putty                jskarvad
puzzles              gbailey
pwkickstart          lzap
py-spidev            pbrobinson
pybox2d              chimosky
pycanberra           limb
pychromecast         pbrobinson
pycmd                thm
pycolumnize          kushal
pyee                 crisdel
pyflakes             aekoroglu
pyjokes              pwhalen
pyke                 spot
pylibacl             frankcrawford kevin szpak
pylibgamerzilla      dulsi
pyotherside          m4rtink orion
pyowm                pwhalen
pyp2rpm              gordonmessmer
pyppd                twaugh
pypy                 churchyard thrnciar
pyscard              orion
pysysbot             fab
python-APScheduler   mmassari zuul
python-AppTools      orion
python-CacheControl  jonathanspw thrnciar
python-CommonMark    jujens
python-GeoIP         jonathanspw pingou
python-IPy           kevin
python-ModulemdTranslationHelpers sgallagh
python-Pallets-Sphinx-Themes frantisekz
python-PyPDF2        aarem
python-PyRSS2Gen     adamwill
python-QtPy          jonathanspw lbalhar
python-TestSlide     dcavalca salimma
python-WSGIProxy2    ondrejj
python-XStatic-Angular-UUID rdopiera
python-XStatic-Angular-Vis rdopiera
python-XStatic-Bootstrap-SCSS nikromen rdopiera
python-XStatic-FileSaver rdopiera
python-XStatic-JS-Yaml rdopiera
python-XStatic-Json2yaml rdopiera
python-aaargh        lbalhar
python-accept-types  orange-kao pwouters rominf rommell
python-acoustid      terjeros
python-adafruit-platformdetect fab
python-ailment       fab mikep
python-aiodns        limb
python-aiohttp-negotiate kwizart
python-aioitertools  mattia
python-aiomysql      jonathanspw
python-aioresponses  gsauthof
python-aiorpcx       jonathanspw jonny
python-aiosqlite     fedepell jonathanspw
python-aiounifi      jonathanspw
python-ajsonrpc      dcavalca
python-allpairspy    jonny
python-amqp          eharney frantisekz raphgro
python-animatplot    davidsch
python-anykeystore   kevin
python-apipkg        ktdreyer thm
python-apypie        ogajduse
python-archinfo      fab mikep
python-arpy          bochecha jonathanspw
python-asciitree     qulogic
python-ase           besser82 marcindulak
python-ast-monitor   gui1ty
python-asteval       fab
python-asysocks      fedepell
python-audioread     terjeros
python-autobahn      jujens
python-autopep8      canderson9
python-avocado       cleber
python-awesomeversion fab
python-azure-mgmt-advisor jcline
python-azure-mgmt-apimanagement jcline
python-azure-mgmt-appconfiguration jcline
python-azure-mgmt-applicationinsights jcline
python-azure-mgmt-authorization jcline
python-azure-mgmt-batch jcline
python-azure-mgmt-batchai jcline
python-azure-mgmt-billing jcline
python-azure-mgmt-botservice jcline
python-azure-mgmt-cdn jcline
python-azure-mgmt-cognitiveservices jcline
python-azure-mgmt-compute jcline
python-azure-mgmt-consumption jcline
python-azure-mgmt-containerinstance jcline
python-azure-mgmt-containerregistry jcline
python-azure-mgmt-containerservice jcline
python-azure-mgmt-cosmosdb jcline
python-azure-mgmt-databoxedge jcline
python-azure-mgmt-datalake-analytics jcline
python-azure-mgmt-datalake-store jcline
python-azure-mgmt-datamigration jcline
python-azure-mgmt-devtestlabs jcline
python-azure-mgmt-dns jcline
python-azure-mgmt-eventgrid jcline
python-azure-mgmt-eventhub jcline
python-azure-mgmt-extendedlocation jcline
python-azure-mgmt-hdinsight jcline
python-azure-mgmt-imagebuilder jcline
python-azure-mgmt-iotcentral jcline
python-azure-mgmt-iothub jcline
python-azure-mgmt-iothubprovisioningservices jcline
python-azure-mgmt-keyvault jcline
python-azure-mgmt-kusto jcline
[...]
rcallicotte awesome-vim-colorschemes mirmon python-cerberus python-pudb python-pycodestyle python-pytest-ordering python-rencode python-trololio python-urwid-readline python-xlib salt-lint vim-nerdtree
rdopiera   python-XStatic-Angular-UUID python-XStatic-Angular-Vis python-XStatic-Bootstrap-SCSS python-XStatic-FileSaver python-XStatic-JS-Yaml python-XStatic-Json2yaml
rebus      aeskeyfind afflib dcfldd dionaea libdasm msoffcrypto-tool ncrack officeparser python-colorclass python-oletools sslscan tcptrack xorsearch
remi       IP2Location ImageMagick compat-lua fastlz libcgif libmcrypt librabbitmq php-PHPParser php-PsrLog php-bacon-qr-code2 php-brick-varexporter php-composer-ca-bundle php-composer-metadata-minifier php-composer-pcre php-composer-xdebug-handler php-composer-xdebug-handler2 php-doctrine-collections php-doctrine-deprecations php-doctrine-event-manager php-doctrine-inflector php-doctrine-inflector2 php-doctrine-instantiator php-doctrine-lexer php-doctrine-sql-formatter php-egulias-email-validator2 php-fedora-autoloader php-felixfbecker-advanced-json-rpc3 php-fig-http-message-util php-http-interop-http-middleware php-http-message-factory php-iamcal-lib-autolink php-icewind-smb2 php-justinrainbow-json-schema5 php-khanamiryan-qrcode-detector-decoder php-league-container4 php-league-flysystem php-league-mime-type-detection php-league-plates php-league-tactician php-microsoft-tolerant-php-parser php-mock-integration2 php-mock-phpunit2 php-mock2 php-myclabs-deep-copy php-myclabs-php-enum php-nikic-php-parser3 php-oauth php-ocramius-code-generator-utils php-pear-Console-Table php-pear-Crypt-CHAP php-pear-Date php-pear-HTTP-Request php-pear-MDB2 php-pear-MDB2-Driver-mysqli php-pear-MDB2-Driver-pgsql php-pear-Mail-mimeDecode php-pear-Net-Curl php-pear-Net-URL php-pear-XML-Parser php-pear-math-biginteger php-pecl-ds php-pecl-krb5 php-pecl-yaml php-phar-io-manifest php-phar-io-version php-phpdocumentor-reflection-common2 php-phpdocumentor-reflection-docblock5 php-phpdocumentor-type-resolver1 php-phpseclib php-phpspec-prophecy php-phpspec-prophecy-phpunit php-phpunit-git php-phpunit-php-timer3 php-phpunitgoodpractices-polyfill php-psr-container php-psr-container2 php-psr-event-dispatcher php-psr-http-factory php-psr-http-server-handler php-psr-http-server-middleware php-samyoul-u2f-php-server php-seld-cli-prompt php-seld-phar-utils php-swaggest-json-diff php-swaggest-json-schema php-symfony-contracts2 php-symfony-requirements-checker php-webimpress-http-middleware-compatibility php-webimpress-safe-writer php-zstd php-zumba-json-serializer phpcpd
renep      tcl-mysqltcl
rffontenelle ddnet
rharwood   unclutter-xfixes
rhughes    dbus-sharp echo-icon-theme firefox gconf-editor gmime gnome-nettool gnome-sharp gtk-sharp2 gtk2 libFS libXfont libXvMC libXxf86dga libXxf86misc libart_lgpl libbonobo libbonoboui libgdiplus libglade2 libgnome libgnomecanvas libgpod libmash liboil libwnck mingw-colord mingw-libcroco rhythmbox tomboy totem unique unique3 xorg-x11-drv-ati yelp
rineau     octomap
rishi      cluttermm libgdata libgepub libgnome-keyring
rjeffman   python-h2 python-hpack python-hyperframe python-ifaddr
rjones     mingw-atk mingw-bzip2 mingw-cairomm mingw-expat mingw-fontconfig mingw-freeglut mingw-gsl mingw-gtkmm24 mingw-libgcrypt mingw-libglade2 mingw-libglademm24 mingw-libgnurx mingw-libgpg-error mingw-libsigc++20 mingw-libsqlite3x mingw-libxml++ mingw-libxml2 mingw-libxslt mingw-openssl mingw-orc mingw-plotmm mingw-portablexdr mingw-spice-gtk mingw-tcl mingw-wpcap mingw-zfstream mlton ocaml-base64 ocaml-cmdliner ocaml-curl
rmeggins   ansible-collection-microsoft-sql linux-system-roles
rnc        cekit
robert     SDL_sound atril audacious-plugins caja caja-actions dehydrated engrampa eom esound gc gstreamermm gtk-murrine-engine imaptest libftdi libmatekbd libmateweather lpcnetfreedv lua-dbi lua-event lua-expat lua-filesystem lua-posix lua-readline lua-sec lua-socket lua-unbound marco mate-applets mate-control-center mate-desktop mate-icon-theme mate-media mate-menu mate-menus mate-panel mate-polkit mate-screensaver mate-utils mod_log_post mozo msoffcrypto-tool openvpn-auth-ldap perl-Date-Holidays-DE pluma prosody python-natsort python-oletools t1utils thc-ipv6
romaingeissler1a python-chai python-constantly python-cssselect python-deepdiff python-gunicorn python-pytest-trio python-twisted
rombobeorn ahven fedora-gnat-project-common gnat-srpm-macros
rominf     python-accept-types python-executing python-exoscale python-folium python-gnupg python-google-i18n-address python-more-itertools python-odata-query python-pyspf python-pytest-localserver python-requests-exoscale-auth python-sentry-sdk python-sly python-stripe python-tokenize-rt python-twilio python-xml2rfc python-zxcvbn
rommell    python-accept-types python-exoscale python-folium python-gnupg python-google-i18n-address python-odata-query python-pytest-localserver python-requests-exoscale-auth python-sentry-sdk python-sly python-stripe python-twilio python-xml2rfc python-zxcvbn
rrankin    gpsim gtk+extra
rrendec    can-utils
rstrode    aisleriot dbus-sharp echo-icon-theme firefox gconf-editor gmime gnome-nettool gnome-sharp gnome-system-log gtk-sharp2 gtk2 libFS libXfont libXvMC libXxf86dga libXxf86misc libart_lgpl libbonobo libbonoboui libgdiplus libglade2 libgnome libgnomecanvas libgpod liboil libwnck rhythmbox totem xorg-x11-drv-ati yelp
sagarun    ArpON cowpatty emacs-irsim-mode lxc
sagitter   MUMPS coin-or-DyLP coin-or-Ipopt coin-or-Vol crossguid2 hdf libcutl maeparser mmtf-cpp nativejit openmeeg python-environs python-gevent python-html5lib qcad qwtplot3d superlu_dist xsd
sailer     ghdl libsqlite3x mingw-cairomm mingw-drmingw mingw-gtkmm24 mingw-jimtcl mingw-lcms mingw-lcms2 mingw-libconfuse mingw-libftdi mingw-libglade2 mingw-libglademm24 mingw-libsigc++20 mingw-libsqlite3x mingw-libxml++ mingw-mpfr mingw-plotmm mingw-sparsehash mingw-tcl mingw-wpcap mingw-zfstream octave-general octave-interval octave-optim octave-specfun
salimma    asahi-scripts bpython bsdiff btrfs-fuse build-constraints-rpm-macros colorized-logs compat-lua cpdup cpputest disciplining-minipod dispenso dnf-plugin-cow fennel folly-rpm-macros geary gnome-js-common gnome-keyring-sharp gtksourceview4 iptstate jc libappindicator liblo liboauth libtermkey libvterm lua-alt-getopt lua-bit32 lua-compat53 lua-filesystem lua-inotify lua-json lua-loop lua-lpeg lua-lunitx lua-moonscript lua-mpack lua-posix lua-readline lua-sql luarocks mcrouter mock-centos-sig-configs musl nickle oflb-smonohand-fonts p7zip portaudio powerline psi-notify python-TestSlide python-blessings python-click-log python-click-threading python-cmarkgfm python-curtsies python-django-allauth python-django-cache-url python-django-compressor python-django-database-url python-django-gravatar2 python-django-picklefield python-django-q python-django-redis python-django-search-url python-dkimpy python-fixit python-howdoi python-html5lib python-jsmin python-keep python-linecache2 python-lupa python-matplotlib-inline python-moreorless python-nltk python-patatt python-pickleshare python-publicsuffix2 python-pure-eval python-pytest-django python-pytest-localserver python-pytest-runner python-pytest-services python-represent python-requests-download python-sphinx-hoverxref python-sphinx-kr-theme python-sphinx_selective_exclude python-usort python-volatile python-xmlsec switchtec trousers tsl-sparse-map ubloxcfg waf xbacklight
saluki     golang-github-bruth-assert
sandeen    kernel libmodbus
sbluhm     mxparser perl-Mail-RFC822-Address xmlpull xstream
scottt     Mars
sdgathman  cjdns dom4j dump1090 marked mp3fs roca-detect thttpd
seanyoung  lirc
sergesanspaille clang13 lld13 llvm11 llvm12 llvm13 xtensor xtensor-python
sergiopr   blt python-pdfrw python-pywt python-sphinx-argparse python-statsmodels xpa
sfaulken   lxqt-about lxqt-openssh-askpass
sgallagh   argbash libgit2 nodejs-packaging python-ModulemdTranslationHelpers python-click-man python-django-pipeline python-flake8 python-memcached python-tqdm python-whoosh
sham1      libdockapp xss-lock
sharkcz    bullet cc65 ddpt devio dmtx-utils firefox libftdi ogdi python-simpleeval pywebdav sigil squirrel uboot-tools unittest-cpp
shlomif    black-hole-solver fortune-mod freecell-solver perl-Dir-Manifest perl-Games-Solitaire-Verify perl-Math-Random-MT perl-Test-Data-Split perl-Test-RunValgrind python-freecell_solver python-pysol-cards rinutils
sic        nexus python-sphinx-bootstrap-theme
sicherha   powerline
siddhesh   gst123 luajit
siosm      akmods ebook-tools fedora-appstream-metadata
siwinski   ckeditor php-Monolog php-PHPParser php-cache-integration-tests php-cache-tag-interop php-doctrine-collections php-doctrine-inflector php-doctrine-lexer php-fedora-autoloader php-guzzlehttp-promises php-masterminds-html5 php-mnapoli-phpunit-easymock php-mtdowling-jmespath-php php-ocramius-code-generator-utils php-psr-cache php-psr-http-message php-psr-link php-psr-simple-cache php-twig php-webimpress-safe-writer php-webmozart-assert
skitt      gitlint
slaanesh   AMF YafaRay akmods asdcplib bitcoin-core daala dpkg egl-gbm kmodtool libcaca libibcommon libiec61883 libsecp256k1 libupnp lpf lv2 meanwhile miniupnpc python-pdfrw python-urlgrabber qperf stoken xorg-x11-drv-amdgpu
slankes    detox docbook2X sj-fonts xdotool
slp        libkrunfw
smallorange libusb-compat-0.1 libusb1
smani      GeographicLib apitrace commoncpp2 jxrlib leptonica libbatch libgeotiff liblbfgs mapserver mingw-SDL_image mingw-angleproject mingw-atk mingw-expat mingw-fcgi mingw-fontconfig mingw-glew mingw-goocanvas2 mingw-graphite2 mingw-gtksourceview3 mingw-harfbuzz mingw-jansson mingw-libepoxy mingw-libgta mingw-libimagequant mingw-libvorbis mingw-libxslt mingw-llvm mingw-python-affine mingw-python-chardet mingw-python-charset-normalizer mingw-python-ephem mingw-python-pyparsing mingw-python-pyproj mingw-python-pytz mingw-python-pyyaml mingw-python-setuptools mingw-python-six mingw-python-tomli mingw-python-urllib3 mingw-qextserialport mingw-qt5-qtscript mingw-spatialindex mingw-spirv-headers mingw-tk mingw-twaindsm mingw-yaml-cpp python-ephem python-flask-compress python-flask-gravatar python-flask-login python-flask-paranoid python-flask-principal python-flask-security-too python-httpagentparser python-lunr python-mergedeep python-mongoengine python-mongomock python-pillow python-pyyaml-env-tag python-sane python-user-agents qbs qhexedit2 qt4-style-fusion scotch svg2svgt virtualpg xfoil xrotor
snirkel    rhythmbox
somlo      icestorm iodine nextpnr python-logzero python-migen trellis wmx yosys
souryogurt cgreen
spetros    ansible-collection-microsoft-sql linux-system-roles
spike      apache-commons-math jtidy
spot       QuantLib R-rpm-macros allgeyer-fonts avoision c-ares efl egd elementary enlightenment fbg2 ftplib gbdfed giver gxemul irrlicht libaesgm libcgi libgdamm libmcrypt libsexy libvidcap libxdiff luabind lzma-sdk457 memchan mono-cecil-flowanalysis mono-reflection opendyslexic-fonts perl-Cairo perl-Geography-Countries perl-Gtk2 perl-Image-Base perl-Image-Size perl-Locale-Maketext-Fuzzy perl-Pango physfs plee-the-bear pyke python-cerealizer python-cson python-oauth2 python-speg radius-engine silkscreen-fonts taglib-sharp tcl-tcludp tcl-tclvfs tcl-tileqt tcl-tkpng tcl-tktreectrl terminology texlive texlive-base tlomt-sniglet-fonts udunits2 woodardworks-laconic-fonts xblas xkeycaps xloadimage xmbdfed xorg-x11-drv-ati
spstarr    rubygem-idn xmlrpc-epi
stefanb    farstream02
stefanha   git-publish
steve      altermime neomutt
steved     kernel libibcommon nfs-utils rpcsvc-proto rusers
stevenfalco nng
stevetraylen bitmap glog h5py kstart leveldb liblzf log4c log4cpp python-beautifulsoup4 python-collectd_systemd python-django-tastypie python-humanize python-pyModbusTCP rubygem-ansi rubygem-curb rubygem-rchardet rubygem-systemu uberftp xcalc xfig
stingray   flow-tools
stransky   firefox yelp
suanand    php-gettext-gettext python-tinydb
sumantrom  python-pytest-httpx python-pytest-xprocess
supakeen   python-pdir2 python-pygments-better-html
suraia     adobe-source-serif-pro-fonts ibm-plex-fonts python-precis_i18n zsh-autosuggestions zsh-syntax-highlighting
survient   freight
suve       dumb-init gearhead1 gravity-beams-and-evaporating-stars jc lazarus php-phpseclib prettyping python-whois rmlint spectrographic twa
swt2c      python-blinker python-raven
szpak      lpairs pylibacl pyxattr
tachoknight libsqlite3x
tadej      pew python-virtualenv-clone
tagoh      ipa-gothic-fonts ipa-mincho-fonts ipa-pgothic-fonts ipa-pmincho-fonts
tartina    clthreads clxclient dssi guitarix jack-audio-connection-kit jack-keyboard jalv liblo lilv lv2 python-sphinx_lv2_theme serd sndfile-tools sord sratom suil
tchaikov   leveldb python3-saml
tdawson    arpack discount docbook5-style-xsl game-music-emu glew kdsoap kuserfeedback libcerf libgta libpgf openal-soft plasma-applet-translator python-lockfile python-openid-cla python-versioneer python-wtforms rubygem-idn rubygem-launchy rubygem-open4 sassc sj-fonts stoken xsd xsettingsd
tdecacqu   python-sphinx-autodoc-typehints
terjeros   bpython e16 e16-docs e16-epplets e16-keyedit e16-themes editres esound eterm ganglia grace grin h5py jericho-html libast libuninum mathomatic mycli orangefs php-pear-Net-IDNA2 pssh python-acoustid python-audioread python-beautifulsoup4 python-cli-helpers python-construct python-curtsies python-cwcwidth python-exif python-hglib python-httpsig-cffi python-terminaltables python-tidy python-unipath sqliteman t1lib
teuf       libcacard libgpod libmusicbrainz5 mingw-libepoxy mingw-libgcrypt mingw-libgpg-error mingw-openssl mingw-spice-gtk mingw-spice-protocol mingw-usbredir phodav rest0.7 spice totem xorg-x11-drv-qxl
tflink     python-flask-sqlalchemy python-wtforms
than       ark automoc gwenview kactivities kapman katomic kblackbox kblocks kbounce kbrickbuster kcolorchooser kde-baseapps kde-i18n kde-l10n kde-runtime kdegames3 kdepimlibs kdialog kdiamond keditbookmarks kf5-baloo kf5-kdelibs4support kf5-kdesignerplugin kf5-kdewebkit kf5-khtml kf5-kjs kf5-libkcddb kfind kfourinline kget kgoldrunner kigo killbots kiriki kjumpingcube klickety klines kmahjongg knavalbattle knetwalk knotes kolf kollision kolourpaint konqueror konquest kontact kpat krdc kreversi kshisen ksirk ksnakeduel kspaceduel ksquares ksudoku kubrick kwebkitpart laughlin-kde-theme leonidas-kde-theme libkcddb libkdegames lovelock-kde-theme lskat migrationtools okteta oxygen-fonts palapeli phonon phonon-backend-gstreamer picmi plasma-workspace qimageblitz qt qt-assistant-adp qt5-qtaccountsservice qt5-qtconfiguration qtchooser sip smokegen solar-kde-theme soprano sparsehash sweeper texlive texlive-base verne-kde-theme
thebeanogamer flite postfix-mta-sts-resolver python-click-spinner python-netdisco python-pyaes
thm        awesome botan geary httperf lmms lua-ldoc lua-lgi lua-lxc lua-markdown lua-penlight lxc pycmd python-apipkg python-execnet python-markdown2 python-py python-regex python-sphinxcontrib-trio python-textile python3-lxc python3-simpletal stk tomboy waf xcb-util-xrm
thofmann   tinyxml
thomas-dickey luit vttest
thozza     libwvstreams wvdial
thrnciar   pypy python-CacheControl python-cleo python-colorzero python-crashtest python-elementpath python-executing python-jaraco-path python-lockfile python-pylev python3.9
thunderbirdtr gamescope kasts kongress libphonenumber libyui libyui-gtk libyui-mga libyui-mga-gtk libyui-mga-ncurses libyui-mga-qt maliit-keyboard python-mailmerge python-manatools python-show-in-file-manager python-versioneer python-ytmusicapi qbs tokodon
tieugene   iso-country-flags liblxqt libqtxdg lumina-desktop lxqt-about lxqt-openssh-askpass nomacs python-trml2pdf qvge qxmledit
till       hxtools libHX linux-system-roles reptyr xkbset youtube-dl
timj       altermime bind-to-tinydns
tjikkun    python-raven tcltls tkdnd
tjuhasz    nodejs-packaging
tkorbar    guile30 tomsfastmath
tonyskapunk tmate
topazus    docparser prison python-git-changelog
torsava    python3.6 python3.9
tpokorra   dbus-sharp dbus-sharp-glib gio-sharp gkeyfile-sharp gnome-desktop-sharp gnome-keyring-sharp gnome-sharp gtk-sharp-beans gtk-sharp2 gtk-sharp3 gudev-sharp libappindicator libgdiplus libgpod mod_mono mono-addins mono-basic mono-cecil mono-tools mono-zeroconf mysql-connector-net ndesk-dbus ndesk-dbus-glib newtonsoft-json notify-sharp notify-sharp3 nunit nunit2 pinta restsharp sharpziplib taglib-sharp xsp
tpopela    firefox
trawets    gconf-editor libbonobo libbonoboui libcmpiutil libgnome libmodman liboil libvirt-java python-cov-core
tredaell   dpdk driverctl
tripledes  elisa-player
trix       golang-github-gin-contrib-cors lensfun opae python-smbprotocol robin-map
tsmetana   pfstools
tstellar   llvm11 rocm-runtime rocminfo
ttomecek   nyancat python-dockerfile-parse python-pytest-cov sen
turboben   pgpdump python-cloudflare python-dns-lexicon
twaugh     osbs-client pyppd python-dockerfile-parse
twoerner   motif
ueno       cocot libfep
uraeus     farstream02 gstreamer1-plugins-bad-free
valtri     log4c mingw-c-ares mingw-gsm mingw-log4c mingw-opus rubygem-macaddr rubygem-uuid
van        android-tools python-crcmod
vanessakris python-git-changelog
vascom     diff-pdf eiskaltdcpp elisa-player git-extras gsmartcontrol gtkdatabox jaero libacars libcorrect lv2-mdala-plugins mediaconch mimalloc plasma-applet-translator python-pymediainfo qrencode rtklib srmio svt-vp9 tcl-thread
vda        uClibc
verdurin   guitarix libgnomecanvasmm26 rtorrent samtools
vfedorenko disciplining-minipod ubloxcfg
victortoso grilo-plugins libusb1 mingw-spice-gtk mingw-spice-protocol mingw-usbredir spice xorg-x11-drv-qxl
vkrizan    python-wtf-peewee
vmihalko   csmith
vondruch   rubygem-cookiejar rubygem-curb rubygem-haml rubygem-hashery rubygem-hitimes rubygem-http_parser.rb rubygem-launchy rubygem-open4 rubygems vim-commentary
vpodzime   python-ntplib
vstinner   python3.6 python3.9
vtrefny    gsmartcontrol jack-mixer lib765 megaglest-data python-colorlog python-convertdate python-pkgconfig python-rarfile python-xvfbwrapper scrot
walki      primesieve
walters    clojure clutter fsverity-utils git-evtag
wart       tcl-tclnagios
wef        aml libevdevPlus libuInputPlus swappy wayvnc wl-gammactl wlogout wlr-sunclock wob
whot       xorg-x11-drv-ati
wtaymans   gstreamer-plugins-espeak gstreamer1-doc gstreamer1-plugins-bad-free gstreamer1-rtsp-server gstreamer1-vaapi ladspa pipewire0.2 python-gstreamer1
wwoods     cowsay-beefymiracle plymouth-theme-hot-dog
wzzrd      libyubikey pam_yubico ykclient ykpers yubikey-personalization-gui
xavierb    alchemyquest drraw foundation-icons-fonts libass libcaca libclaw libicns multiwatch nv-codec-headers perl-Encode-HanExtra perl-Image-Base perl-Image-Size perl-Net-UPnP perl-Sentry-Raven perl-Term-ShellUI perl-Tk-TableMatrix perl-WWW-Search php-feedcreator php-pear-Crypt-Blowfish php-pear-Crypt-CHAP python-lockfile xorg-x11-drv-openchrome
xhorak     firefox yelp
xvitaly    iwyu
yangrr     otf2bdf
yanqiyu    checksec fcitx-m17n fcitx-qt5 fcitx5 fcitx5-chewing fcitx5-chinese-addons fcitx5-gtk fcitx5-hangul fcitx5-lua fcitx5-m17n fcitx5-mozc fcitx5-qt fcitx5-rime fcitx5-unikey libime xcb-imdkit
yarek      disciplining-minipod ubloxcfg
ykarel     python-incremental python-treq
yselkowitz caribou flatpak-module-tools gnome-panel gstreamer1-plugins-bad-free gummi libart_lgpl libglade2 libgnomecanvas libkcddb multimarkdown mypaint slashem
zawertun   kuserfeedback python-sphinxext-opengraph
zbyszek    mathjax
zsun       golang-github-alecthomas-repr golang-github-alecthomas-units golang-github-axgle-mahonia golang-github-cheekybits-is golang-github-disintegration-imaging golang-github-fogleman-gg golang-github-nfnt-resize libdbusextended-qt5 liblxqt libmpris-qt5 libqtxdg
zuul       python-APScheduler python-sphinx-autodoc-typehints
zyga       golang-github-gosexy-gettext golang-github-mvo5-goconfigparser golang-github-snapcore-gettext
zzambers   java-latest-openjdk-portable
