Maintainers by package:
0ad                  kalev limb pcpa pwalter
0ad-data             bruno kalev limb pwalter
2048-cli             besser82
3dprinter-udev-rules churchyard
3mux                 eclipseo orphan
AMF                  slaanesh
Agda-stdlib          petersen
AllegroOGG           jwrdegoede
ArpON                sagarun
CFR                  jvanek
CQRlib               krege
CTML                 dcavalca
CVector              krege
CardManager          jvanek
ClanLib              jwrdegoede
ClanLib06            jwrdegoede
ClanLib1             jwrdegoede
CubicSDR             orphan swt2c
DevIL                jwrdegoede
FAudio               mooninite
FoXlibf              marcindulak
FreeSOLID            martinkg
GLee                 lkundrak
GarminPlugin         besser82
GeographicLib        rmattes smani
GraphicsMagick       ixs rdieter
Hermes               jwrdegoede
IP2Location          pbiering remi
IQmol                jussilehtola
ImageMagick          kalev luya remi
MUMPS                sagitter
MagicPoint           jwrdegoede
Mars                 mikep scottt
Mayavi               orion
NLopt                fed500
NearTree             krege
OpenColorIO          hobbes1069
OpenMolcas           jussilehtola
QsLog                jussilehtola
QuantLib             spot
R-BufferedMatrix     spot
R-DBI                spot
R-DBItest            qulogic
R-IRanges            spot
R-IRdisplay          qulogic
R-IRkernel           qulogic
R-R.cache            qulogic
R-R.devices          qulogic
R-R.methodsS3        qulogic
R-R.oo               qulogic
R-R.rsp              qulogic
R-R6                 spot
R-RCurl              spot
R-RSQLite            spot
R-V8                 qulogic
R-abind              spot
R-acepack            spot
R-affyio             spot
R-argon2             qulogic
R-askpass            qulogic
R-bench              qulogic
R-bindr              qulogic
R-bindrcpp           qulogic
R-brio               qulogic
R-broom              qulogic
R-bslib              qulogic
R-cachem             spot
R-callr              qulogic
R-cellranger         qulogic
R-cli                qulogic
R-cliapp             qulogic
R-clisymbols         qulogic
R-colorspace         qulogic
R-cpp11              qulogic
R-crayon             spot
R-credentials        qulogic
R-crosstalk          qulogic
R-curl               qulogic
R-cyclocomp          qulogic
R-dbplyr             qulogic
R-debugme            qulogic
R-desc               qulogic
R-digest             spot
R-disposables        qulogic
R-downlit            qulogic
R-dplyr              qulogic
R-dtplyr             qulogic
R-errors             iucar
R-evaluate           qulogic
R-farver             qulogic
R-fastmap            qulogic
R-filelock           qulogic
R-foghorn            qulogic
R-fontLiberation     qulogic
R-forcats            qulogic
R-formattable        qulogic
R-gargle             qulogic
R-generics           qulogic
R-gert               qulogic
R-getPass            qulogic
R-ggplot2            qulogic
R-gh                 qulogic
R-gitcreds           qulogic
R-globals            qulogic
R-glue               qulogic
R-gmailr             qulogic
R-haven              qulogic
R-here               qulogic
R-hms                qulogic
R-htmlwidgets        qulogic
R-httr               qulogic
R-hunspell           qulogic
R-import             qulogic
R-isoband            qulogic
R-jose               qulogic
R-jqr                qulogic
R-jquerylib          qulogic
R-jsonlite           qulogic
R-keyring            qulogic
R-labeling           qulogic
R-later              qulogic
R-lintr              qulogic
R-listenv            qulogic
R-magick             qulogic
R-magrittr           spot
R-memoise            spot
R-microbenchmark     qulogic
R-mockery            qulogic
R-munsell            qulogic
R-odbc               qulogic
R-openssl            qulogic
R-oskeyring          qulogic
R-pdftools           qulogic
R-pillar             qulogic
R-pingr              qulogic
R-pkgcache           qulogic
R-pkgconfig          qulogic
R-pkgdown            qulogic
R-plogr              spot
R-plyr               qulogic
R-praise             spot
R-preprocessCore     spot
R-prettycode         qulogic
R-prettyunits        spot
R-processx           qulogic
R-procmaps           qulogic
R-profmem            qulogic
R-progress           qulogic
R-promises           qulogic
R-ps                 qulogic
R-quantities         iucar
R-qvalue             spot
R-ragg               qulogic
R-rappdirs           qulogic
R-rcmdcheck          qulogic
R-readxl             qulogic
R-rematch            qulogic
R-rematch2           qulogic
R-remotes            qulogic
R-reprex             qulogic
R-reshape            qulogic
R-reshape2           qulogic
R-rex                qulogic
R-rhub               qulogic
R-rlang              qulogic
R-roxygen2           qulogic
R-rpm-macros         qulogic spot
R-rprintf            qulogic
R-rprojroot          qulogic
R-rstudioapi         qulogic
R-rsvg               qulogic
R-rtracklayer        spot
R-rversions          qulogic
R-rvest              qulogic
R-sass               qulogic
R-scales             qulogic
R-selectr            qulogic
R-shiny              qulogic
R-sodium             qulogic
R-sourcetools        qulogic
R-spelling           qulogic
R-stringi            qulogic
R-stringr            qulogic
R-sys                qulogic
R-systemfonts        qulogic
R-testthat           spot
R-textshaping        qulogic
R-tibble             qulogic
R-tidyr              qulogic
R-tidyselect         qulogic
R-tinytex            qulogic
R-tweenr             qulogic
R-unix               qulogic
R-usethis            qulogic
R-uuid               qulogic
R-vctrs              qulogic
R-viridisLite        qulogic
R-waldo              qulogic
R-waveslim           jamatos
R-webfakes           qulogic
R-webp               qulogic
R-webutils           qulogic
R-wesanderson        qulogic
R-whoami             qulogic
R-widgetTools        spot
R-withr              qulogic
R-xfun               qulogic
R-xmlparsedata       qulogic
R-xopen              qulogic
R-yaml               qulogic
R-zeallot            qulogic
R-zip                qulogic
Random123            ankursinha
SAASound             jwrdegoede
SDL2_image           fcami ngompa pwalter
SDL2_net             ignatenkobrain jonathanspw ngompa pwalter
SDL_mng              dulsi
SDL_sound            jonathanspw jwrdegoede robert
SILLY                jwrdegoede
SOIL                 belegdol
Simple-Fuzzer        aconole
SkyX                 rmattes
TurboGears2          cverna ondrejj
YafaRay              luya slaanesh
abduco               dfateyev linkdupont
academic-admin       mikep
accerciser           kalev
act                  churchyard
adime                jwrdegoede
admeshgui            churchyard
adobe-source-serif-pro-fonts suraia
aeskeyfind           rebus
afflib               kwizart rebus
aftertheflood-sparks-fonts eclipseo
agedu                jussilehtola
ahven                rombobeorn
aisleriot            mclasen rstrode
akmods               kwizart leigh123linux nvieville siosm slaanesh
akonadi-calendar-tools marcdeop
alchemyquest         dulsi xavierb
alef-fonts           aekoroglu
alfont               jwrdegoede
alglib               smani
allegro5             jwrdegoede
allgeyer-fonts       spot
altermime            jorti steve timj
am-utils             iankent
aml                  ngompa wef
ampy                 churchyard
android-tools        van
angband              dherrera
angelscript          pwalter
anka-coder-fonts     ankursinha
ansible-bender       gordonmessmer
ansible-collection-kubernetes-core gotmax23 kevin
ansible-collection-microsoft-sql rmeggins spetros
antlrworks           melmorabity
apa-new-athena-unicode-fonts ankursinha
apache-commons-math  melmorabity spike
apanov-heuristica-fonts aekoroglu
apitrace             smani
apptainer            dwd
apx                  raphgro
aqsis                kwizart pmachata
aquatone             orphan
archivemount         devos
argbash              sgallagh
args4j               mbooth mizdebsk
argtable             nonamedotc pwouters
aria2                neil
ark                  rdieter than
arm-none-eabi-binutils-cs mhlavink
arpack               besser82 imcinerney jussilehtola tdawson
arprec               besser82
asahi-scripts        dcavalca ngompa salimma
asdcplib             aekoroglu kwizart slaanesh
asnip                orphan
aspell-en            jchaloup ljavorsk nforro
aspell-ru            jchaloup ljavorsk nforro
aspell-sk            ondrejj
assetfinder          orphan
assimp               cottsay rmattes
ast                  orion
asterisk-sounds-core jsmith
atf                  jonathanspw ngompa
atkmm2.36            kalev
atril                raveit65 robert
attica               marcdeop
audacious-plugins    danfruehauf mschwendt robert
auditwheel           churchyard
automoc              rdieter
autossh              abo fale
avl                  smani
avogadro2            sagitter
avogadro2-libs       sagitter
avoision             spot
awesome              thm
awesome-vim-colorschemes cn137 rcallicotte
ax25-apps            hobbes1069
badchars             fab
badvpn               pwalter
badwolf              lyessaadi
ballz                bruno jwrdegoede
bam                  lkundrak
bash-argsparse       jonathanspw
bats                 harrymichal mikelo2
battray              aarem
bbkeys               filiperosset
bcd                  kwizart
beansbinding         omajid
beanstalkd           gnat
bear-factory         martinkg
beets                gbcox maha mbaldessari
bgpq3                benniej
bind-to-tinydns      timj
bio2jack             dtimms
bitcoin-core         slaanesh
bitmap               stevetraylen
bitstream            kwizart
black-hole-solver    shlomif
blackbox             cicku filiperosset
blaze                diehlpk
blobwars             bruno
blogilo              kkofler
blt                  krege sergiopr
bltk                 jskarvad
bluebird             kevin maxamillion
boinc-client         germano
boomaga              martinkg
botan                thm
bouncycastle         ellert gil mbooth
bpython              maxamillion salimma terjeros
brightnessctl        fale ngompa pjgeorg
bsd-games            jmakey
bsdiff               jnovy salimma
bspwm                pidgornyy
btrfs-fuse           dcavalca salimma
btrfs-heatmap        jorti
budgie-control-center joshstrobl
bugzilla             astra eseyman
build-constraints-rpm-macros salimma
bullet               rmattes sharkcz
bumpversion          dcavalca fedepell jonathanspw
bwidget              krege
bwping               alciregi
byteman              jerboaa jhuttana
bzflag               jmakey
c++-gtk-utils        airwave echevemaster
c-ares               spot
caja                 raveit65 robert
caja-actions         raveit65 robert
calligraplan         rdieter
can-utils            jkastner linville pbrobinson pmatilai
cantera              fuller sic
capnproto            ngompa
capstats             orphan
caribou              leigh123linux
cataclysm-dda        dulsi
catalyst             orion
catimg               keesdejong
cava                 larsks
cbios                jwrdegoede
cc1541               besser82
cc65                 besser82 sharkcz
cdk                  cicku fale
cdlabelgen           rathann
cdogs-sdl            jwrdegoede
cdparanoia           ajax pjones
cegui06              bruno jwrdegoede
cekit                goldmann rnc
celt051              alexl
cgreen               souryogurt
charliecloud         jogas
check_postgres       devrim
checksec             yanqiyu
chisel               orphan
chisholm-letterslaughing-fonts ankursinha
chisholm-to-be-continued-fonts aekoroglu
cinnamon             leigh123linux
cinnamon-control-center leigh123linux
cinnamon-desktop     leigh123linux
cinnamon-menus       leigh123linux
cinnamon-screensaver leigh123linux
cinnamon-session     leigh123linux
cinnamon-settings-daemon leigh123linux
cjdns                sdgathman
cjs                  leigh123linux
ckeditor             siwinski
clang13              petersen sergesanspaille
classified-ads       costello
clatd                ingvar
clearlooks-compact-gnome-theme lkundrak
clementine           eclipseo
clitest              jonny
clojure              korkeala kushal walters
clojure-core-specs-alpha korkeala
clojure-maven-plugin korkeala
clojure-spec-alpha   korkeala
clthreads            tartina
clucene              rdieter
clustershell         sthiell
clutter              fmuellner kalev walters
clutter-gst3         amigadave
clutter-gtk          kalev
cluttermm            rishi
clxclient            tartina
cm_rgb               ausil
cminpack             rmattes
cmrt                 dcavalca kwizart
coan                 ajax filiperosset
cocot                ueno
code2html            moceap
cogl                 fmuellner kalev
coin-or-DyLP         sagitter
coin-or-Ipopt        sagitter
coin-or-Vol          sagitter
coldet               jwrdegoede
colm                 filiperosset jtaylor
colorized-logs       kilobyte salimma
combblas             sagitter
comic-neue-fonts     kvolny
commit-stream        orphan
common-lisp-controller green
commoncpp2           smani
compat-flex          pmachata
compat-lua           jwrdegoede moceap remi salimma
compat-tolua++       jwrdegoede
compiz               jskarvad raveit65
compiz-plugins-extra jskarvad
compizconfig-python  jskarvad
comps-extras         ngompa
conakry-fonts        ankursinha
console-image-viewer jvanek
corectrl             atim
corsix-th            atim
cortado              jwrdegoede
cowpatty             sagarun
cowsay-beefymiracle  ndim wwoods
cpdup                salimma
cpp-httplib          orion pemensik
cppcodec             aekoroglu
cpphs                petersen
cpprest              c72578
cpptest              fcami
cpputest             salimma
cppzmq               qulogic
crossguid            melmorabity
crossguid2           sagitter
crrcsim-addon-models dwrobel
csmith               vmihalko
cstream              ndim
ctan-cm-lgc-fonts    aekoroglu
ctan-kerkis-fonts    aekoroglu
cubeb                mystro256
curlpp               filiperosset
cvise                mpolacek
cwm                  bmeneguele
cxxtools             martinkg
d-din-fonts          ngompa
d0_blind_id          pwalter
dSFMT                laxathom nalimilan
daala                kwizart slaanesh
daggy                atim ignatenkobrain milovidov
dahdi-tools          bruno jsmith
dapl                 honli
daq                  marcindulak
darkhttpd            cicku filiperosset
darkman              linkdupont
dbus-c++             drago01
dbus-sharp           alexl rhughes rstrode tpokorra
dbus-sharp-glib      tpokorra
dcfldd               rebus
ddcutil              tdawson yanqiyu
ddnet                ngompa rffontenelle
ddpt                 sharkcz
ddupdate             leamas
debconf              ngompa
debootstrap          jonathanspw lkundrak ngompa
decentxml            mbooth mizdebsk
dehydrated           pwouters robert
deletemail           orphan
deluge               mooninite
detox                filiperosset slankes
dev86                jnovy lkundrak
devio                sharkcz
dhcping              orphan
dicomanonymizer      alciregi
diff-pdf             vascom
dionaea              rebus
direnv               logic
dirgra               didiksupriadi41
disciplining-minipod abulimov dcavalca leoleovich pcullen pmazzini salimma vfedorenko yarek
discount             greghellings
disk-utilities       dcavalca
dispenso             salimma
distro-info          suraia
distro-info-data     suraia
dmenu                cicku mathstuf mrc0mmand psabata
dmg2img              peter
dmtx-utils           sharkcz
dnf-plugin-cow       dcavalca ngompa salimma
dnscrypt-proxy       dcavalca eclipseo
dnsgen               orphan
dnssec-tools         mspacek
dnstracer            jonathanspw
docbook-slides       anezbeda ovasik
docbook2X            slankes
docbook5-style-xsl   anezbeda osloup ovasik tdawson
doclifter            defolos
docopt-cpp           pemensik
docparser            cheeselee topazus
doge                 churchyard
doh                  carlwgeorge
dolphin-connector    poetinha
dom4j                jwrdegoede mizdebsk sdgathman
domoticz             mooninite
douceur              athoscr
dpdk                 aconole linville tredaell
dpkg                 cheeselee ngompa slaanesh
dput-ng              suraia
drehatlas-widelands-fonts jwrdegoede
driverctl            fbl tredaell
dropbear             cicku fedepell
dropbox-api-command  mathstuf
drpm                 jmracek mcbeeffx
drraw                xavierb
drupal7              jsmith pfrields siwinski
dssi                 tartina
dt                   agk mbroz okozina
dub                  dcavalca
duel3                jwrdegoede
duff                 echevemaster
dumb                 jwrdegoede
dumb-init            suve
dump1090             sdgathman
dvblinkremote        melmorabity
dvtm                 maxamillion psabata
dxf2gcode            dwrobel
dxpc                 ajax
dxvk-native          ngompa
dynaconf             dmsimard
dynamite             jwrdegoede
e16                  terjeros
e16-docs             terjeros
e16-epplets          terjeros
e16-keyedit          terjeros
e16-themes           terjeros
e2fsprogs            josef kasal kzak preichl sandeen
ebook-tools          rdieter siosm
ebtree               ingvar
ec2-metadata         manpaz
echo-icon-theme      alexl luya rhughes rstrode
ecj                  abbra
eclipse-swt          deamn
edgar                musuruan
editres              terjeros
efl                  dchen spot
efont-unicode-bdf    mtasaka
egd                  spot
egl-gbm              ework ngompa slaanesh
eiskaltdcpp          vascom
ektype-mukta-fonts   fed500
electron-cash        jonny peter
electrum             js
elementary           konradm orphan spot
elements             aalvarez
elements-alexandria  aalvarez
elfio                ignatenkobrain orion
elisa-player         tripledes vascom
emacs-irsim-mode     sagarun
emacs-json-reformat  melmorabity
enblend              bpostle
enchant              limb
endless-sky          linkdupont
endlessh             mikelo2
enet                 bruno fcami jwrdegoede
engrampa             raveit65 robert
enlightenment        cicku dchen spot
entypo-fonts         leamas
enum                 kdudka ovasik
envytools            jwrdegoede lyude
eom                  raveit65 robert
ephemeral-port-reserve cstratak
erlang-base64url     bowlofeggs peter
erlang-bbmustache    peter
erlang-chronos       peter
erlang-cl            peter
erlang-cowboy        peter
erlang-eflame        peter
erlang-egeoip        peter
erlang-eradius       bowlofeggs peter
erlang-erlsyslog     peter
erlang-erlware_commons peter
erlang-erlydtl       peter
erlang-esasl         peter
erlang-fuse          peter
erlang-gettext       peter
erlang-goldrush      bowlofeggs jcline peter
erlang-gtknode       peter
erlang-hyper         peter
erlang-idna          bowlofeggs peter
erlang-jiffy         bowlofeggs lkundrak peter
erlang-jose          jcline peter
erlang-jsx           peter
erlang-kvc           peter
erlang-mochiweb      peter
erlang-mustache      peter
erlang-neotoma       peter
erlang-oauth         peter
erlang-oauth2        jcline peter
erlang-p1_oauth2     bowlofeggs jcline peter
erlang-ranch         peter
erlang-rebar         jeckersb peter
erlang-rpm-macros    jeckersb peter
erlang-sd_notify     jeckersb peter
erlang-ssl_verify_fun peter
esh                  churchyard
esound               robert terjeros
eterm                terjeros
eventlog             czanik mrunge
exercism             qulogic
exo                  kevin nonamedotc
expatpp              peter
extra-cmake-modules  cicku lkundrak rdieter
f27-backgrounds      dreua luya
f28-backgrounds      dreua luya
fakechroot           cicku corsepiu ngompa
fakeroot             lkundrak moceap ngompa
falkon               kkofler
farstream02          stefanb uraeus
fastbit              pkfed
fastlz               remi
fatcat               dcavalca
fbg2                 spot
fcgi                 kni
fcgiwrap             kni
fcitx-m17n           cheeselee yanqiyu
fcitx-qt5            cheeselee yanqiyu
fcitx5               yanqiyu
fcitx5-chewing       yanqiyu
fcitx5-chinese-addons yanqiyu
fcitx5-gtk           yanqiyu
fcitx5-hangul        yanqiyu
fcitx5-lua           yanqiyu
fcitx5-m17n          yanqiyu
fcitx5-mozc          music yanqiyu
fcitx5-qt            yanqiyu
fcitx5-rime          yanqiyu
fcitx5-unikey        yanqiyu
fcl                  rmattes thofmann
fedora-appstream-metadata siosm
fedora-flathub-remote otaylor
fedora-gnat-project-common rombobeorn
fedora-jam-kde-theme q5sys
fedora-third-party   otaylor
fedora-workstation-repositories mclasen
fedorainfinity-backgrounds besser82
feh                  fale mathstuf
fennel               salimma
ffuf                 orphan
fgrun                bellet
fido                 besser82 cdamian
figlet               slaanesh
figtoipe             cicku
firefox              alexl erack gecko-maint jgrulich kalev kengert rhughes rstrode sharkcz stransky tpopela ueno xhorak
firewalk             huzaifas
fishbowl             didiksupriadi41
five-or-more         kalev
fixedptc             dwrobel
flamerobin           orphan
flann                rmattes
flatpak-module-tools kalev otaylor yselkowitz
flatpak-rpm-macros   amigadave otaylor tpopela yselkowitz
flite                peter rathann thebeanogamer
flopgen              dcavalca
floppy-support       bruno
florence             cicku kevin
flow-tools           orion stingray
fluid                lkundrak plfiorini
fluxbox              dchen
flwkey               hobbes1069
flyingsaucersattack  jwrdegoede
fmit                 dwrobel
folly-rpm-macros     salimma
fontawesome-fonts    dcavalca fale jjames mrunge pvoborni
fontsquirrel-crete-round-fonts rathann
fortune-mod          ngompa shlomif
foundation-icons-fonts xavierb
freealut             jwrdegoede pwalter
freecell-solver      shlomif
freecolor            dfateyev
freeradius-client    peter
freight              evgeni survient
frescobaldi          limb
fsverity-utils       walters
ftnchek              orion
ftplib               spot
funguloids           jwrdegoede
fuse-pingfs          mikelo2
fuzza                orphan
fuzzel               alebastr atim
fwts                 benzea
fzf                  qulogic
ga                   marcindulak
gabedit              mtasaka rathann
game-music-emu       kvolny tdawson
gamescope            farchord frantisekz ngompa thunderbirdtr
ganglia              terjeros
garcon               kevin nonamedotc orion
gau2grid             jussilehtola
gazebo               rmattes
gbdfed               spot
gc                   pcpa praiskup rdieter
gcab                 elmarco slaanesh
gcompris-qt          musuruan
gconf-editor         alexl rhughes rstrode trawets
gdb                  ahajkova gwenthekween jankratochvil keiths kevinb mkolar
gdlmm                dodji kalev
geany                dmaphy josef pingou
geany-themes         dmaphy
gearbox              rmattes
gearhead1            suve
gears-backgrounds    q5sys
geary                salimma thm
gecode               jdunn
gedit-plugin-editorconfig ferdnyc
generic-logos        ngompa
genesis-simulator    ankursinha
geomview             rdieter
gflags               dcavalca
ggz-base-libs        pwalter rdieter
ghasher              filiperosset
ghc-base-compat      mathstuf petersen
ghc-base-compat-batteries petersen
ghc-base-orphans     qulogic
ghc-base-prelude     qulogic
ghc-bower-json       petersen
ghc-call-stack       petersen
ghc-conduit          petersen
ghc-conduit-extra    petersen
ghc-cookie           petersen
ghc-doctest          qulogic
ghc-hoauth2          petersen
ghc-hslua-module-text petersen
ghc-hspec            dshea petersen
ghc-hspec-core       dshea petersen
ghc-hspec-discover   dshea petersen
ghc-http-client-openssl petersen
ghc-http-client-restricted qulogic
ghc-http-client-tls  qulogic
ghc-lens-aeson       dshea
ghc-monad-logger     petersen
ghc-protolude        petersen
ghc-relude           petersen
ghc-repline          petersen
ghc-rio              petersen
ghc-shakespeare      petersen
ghc-streaming-commons petersen
ghc-th-abstraction   qulogic
ghc-typed-process    petersen
ghc-unliftio         petersen
ghc-vector-builder   qulogic
ghc-wai-app-static   qulogic
ghc-warp-tls         qulogic
ghc-yesod            petersen
ghc-yesod-core       petersen
ghc-yesod-form       petersen
ghc-yesod-persistent petersen
ghdl                 sailer
gif2png              jonathanspw
gio-sharp            tpokorra
git-archive-all      hobbes1069
git-evtag            ignatenkobrain walters
git-extras           besser82 vascom
git-publish          stefanha
git-secret           gombosg
git-up               ekohl
gitjacker            orphan
gitlint              skitt
giver                spot
gkeyfile-sharp       tpokorra
glade                kalev
glew                 ajax jexposit orion tdawson
glide                jchaloup
glm                  muep orion
global               cheeselee landgraf
glog                 jonathanspw stevetraylen
glues                raphgro
glyph-keeper         jwrdegoede
glyphicons-halflings-fonts kni
gmailctl             fuller
gmime                alexl pwalter rhughes rstrode
gmm                  rdieter
gnat-srpm-macros     landgraf rombobeorn
gnome-bluetooth3.34  limb
gnome-builder        amigadave ignatenkobrain
gnome-desktop-sharp  laxathom tpokorra
gnome-desktop-testing mclasen walters
gnome-dictionary     mclasen
gnome-js-common      salimma
gnome-keyring-sharp  salimma tpokorra
gnome-klotski        kalev
gnome-music          kalev
gnome-nettool        alexl kalev rhughes rstrode
gnome-panel          atim yselkowitz
gnome-sharp          laxathom rhughes rstrode tpokorra
gnome-subtitles      belegdol
gnome-system-log     mclasen rstrode
gnome-tetravex       kalev
gnome-themes-extra   pwalter
gnulib               moceap
gnumeric             alexpl huzaifas
gnuplot              jkucera pcahyna
go-bindata           eclipseo jchaloup
go2rpm               alexsaezm eclipseo gotmax23 mikelo2
goaltdns             orphan
goddard-backgrounds  q5sys
godotenv             athoscr
golang-bazil-fuse    jchaloup mikelo2
golang-bitbucket-ww-goautoneg jchaloup mikelo2
golang-etcd-bbolt    mikelo2
golang-github-a8m-tree jchaloup mikelo2
golang-github-aalpar-deheap orphan
golang-github-aaronjanse-pty orphan
golang-github-acarl005-stripansi orphan
golang-github-aclements-moremath eclipseo jchaloup
golang-github-acobaugh-osrelease harrymichal
golang-github-adrg-xdg linkdupont
golang-github-adrianmo-nmea orphan
golang-github-aead-chacha20 eclipseo jchaloup
golang-github-aead-poly1305 eclipseo jchaloup
golang-github-afex-hystrix alexsaezm
golang-github-akamensky-argparse orphan
golang-github-akavel-rsrc eclipseo
golang-github-alecaivazis-survey-2 mikelo2
golang-github-alecthomas-assert felixonmars qulogic zsun
golang-github-alecthomas-chroma athoscr
golang-github-alecthomas-colour felixonmars qulogic zsun
golang-github-alecthomas-kong qulogic
golang-github-alecthomas-kong-hcl mikelo2
golang-github-alecthomas-repr felixonmars qulogic zsun
golang-github-alecthomas-units felixonmars zsun
golang-github-alexflint-filemutex mikelo2
golang-github-aliyun-oss-sdk bdperkin eclipseo
golang-github-aliyun-ossutil bdperkin
golang-github-alyu-configparser bdperkin
golang-github-andrew-d-termutil orphan
golang-github-andreyvit-diff gotmax23
golang-github-andybalholm-brotli alexsaezm
golang-github-andybalholm-cascadia athoscr
golang-github-anmitsu-shlex jchaloup mikelo2
golang-github-antchfx-htmlquery eclipseo
golang-github-antchfx-jsonquery orphan
golang-github-antchfx-xmlquery mikelo2
golang-github-antchfx-xpath orphan
golang-github-antihax-optional mikelo2
golang-github-apex-logs mikep
golang-github-armon-circbuf jchaloup orphan
golang-github-armon-gomdb eclipseo jchaloup
golang-github-armon-metrics mikelo2
golang-github-armon-radix alexsaezm
golang-github-armon-socks5 mikelo2
golang-github-artyom-mtab orphan
golang-github-aryann-difflib orphan
golang-github-asaskevich-eventbus orphan
golang-github-asaskevich-govalidator logic
golang-github-aws-lambda mikelo2
golang-github-axgle-mahonia zsun
golang-github-aykevl-wasm qulogic
golang-github-azure-amqp mikep
golang-github-azure-amqp-common mikep
golang-github-azure-ntlmssp orphan
golang-github-azure-pipeline mikelo2
golang-github-azure-sdk jcline
golang-github-azure-service-bus mikep
golang-github-azure-storage-blob mikelo2
golang-github-badoux-checkmail qulogic
golang-github-beevik-ntp fuller
golang-github-benbjohnson-clock nathans
golang-github-beorn7-perks jchaloup mikelo2
golang-github-bep-debounce qulogic
golang-github-bep-gitmap athoscr fale
golang-github-bep-goat mikep
golang-github-bep-godartsass mikep
golang-github-bep-golibsass qulogic
golang-github-bep-overlayfs mikep
golang-github-bep-tmc qulogic
golang-github-bep-workers mikep
golang-github-bettercap-gatt orphan
golang-github-bettercap-readline orphan
golang-github-bgentry-netrc thebeanogamer
golang-github-bgentry-speakeasy alexsaezm jchaloup
golang-github-bifurcation-mint eclipseo
golang-github-bitly-simplejson jchaloup mikelo2
golang-github-bits-and-blooms-bitset dcavalca
golang-github-blakesmith-ar qulogic
golang-github-blang-semver mikelo2
golang-github-bmatcuk-doublestar-3 eclipseo
golang-github-bmizerany-assert jchaloup mikelo2
golang-github-bobesa-domain-util orphan
golang-github-boombuler-barcode logic
golang-github-bradenhilton-cityhash qulogic
golang-github-bradfitz-iter eclipseo
golang-github-bruth-assert saluki
golang-github-bshuster-repo-logrus-logstash-hook mikelo2
golang-github-bsphere-le alexsaezm
golang-github-buengese-sgzip orphan
golang-github-bugsnag alexsaezm
golang-github-bugsnag-panicwrap alexsaezm jchaloup
golang-github-burntsushi-graphics eclipseo
golang-github-burntsushi-locker qulogic
golang-github-burntsushi-toml dfateyev mikelo2
golang-github-burntsushi-toml-test mikelo2
golang-github-burntsushi-xgb eclipseo
golang-github-c-bata-prompt eclipseo
golang-github-cactus-statsd-client alexsaezm
golang-github-calebcase-tmpfile orphan
golang-github-caspr-io-yamlpath fale
golang-github-cenkalti-backoff jchaloup orphan
golang-github-cention-sany-utf7 eclipseo
golang-github-cespare-xxhash orphan
golang-github-chai2010-gettext eclipseo
golang-github-chappjc-logrus-prefix dcavalca
golang-github-charmbracelet-glamour mikelo2
golang-github-charmbracelet-lipgloss mikelo2
golang-github-cheekybits-is zsun
golang-github-chi    mikelo2
golang-github-chi-cors yanqiyu
golang-github-chi-render yanqiyu
golang-github-chris-ramon-douceur eclipseo
golang-github-christrenkamp-goxpath orphan
golang-github-chromedp orphan
golang-github-chromedp-cdproto orphan
golang-github-chromedp-sysutil eclipseo
golang-github-chzyer-test jchaloup mikelo2
golang-github-cilium-ebpf alexsaezm
golang-github-circonus-labs-apiclient mikelo2
golang-github-circonus-labs-circonusllhist mikelo2
golang-github-circonus-labs-gometrics mikelo2
golang-github-clbanning-mxj mikelo2
golang-github-clbanning-x2j mikelo2
golang-github-cli-gh orphan
golang-github-cli-oauth orphan
golang-github-cli-shurcool-graphql jdoss
golang-github-clickhouse dcavalca
golang-github-client9-plaintext eclipseo
golang-github-cmd    eclipseo
golang-github-cnf-structhash mikelo2
golang-github-cockroachdb-pebble eclipseo
golang-github-cockroachdb-sentry alexsaezm
golang-github-codegangsta-inject mikelo2
golang-github-colinmarc-hdfs-2 mikelo2
golang-github-common-nighthawk-figure orphan
golang-github-coreos-ioprogress eclipseo
golang-github-corpix-uarand orphan
golang-github-cosiner-argv qulogic
golang-github-cpu-goacmedns eclipseo
golang-github-cpuguy83-md2man dfateyev mikelo2
golang-github-creack-goselect qulogic
golang-github-creack-pty alexsaezm
golang-github-crossdock mikelo2
golang-github-cucumber-gherkin eclipseo
golang-github-cucumber-godog eclipseo
golang-github-cucumber-messages eclipseo
golang-github-cupcake-rdb eclipseo
golang-github-cyberdelia-metrics-graphite fale
golang-github-d2g-dhcp4 alexsaezm
golang-github-d5-tengo-2 orphan
golang-github-daaku-zipexe eclipseo
golang-github-danwakefield-fnmatch athoscr
golang-github-data-dog-sqlmock dcavalca
golang-github-datadog alexsaezm
golang-github-datadog-golz4 dcavalca
golang-github-dave-jennifer gotmax23
golang-github-davecgh-spew mikelo2
golang-github-davecgh-xdr eclipseo
golang-github-daviddengcn-colortext eclipseo
golang-github-dchest-safefile eclipseo jchaloup
golang-github-deckarep-set alexsaezm
golang-github-delve-liner alexsaezm fuller
golang-github-denisbrodbeck-machineid dcavalca
golang-github-denisenkom-mssqldb mikelo2
golang-github-dennwc-varint alexsaezm
golang-github-derekparker-trie fuller
golang-github-devigned-tab mikep
golang-github-dghubble-oauth1 orphan
golang-github-dghubble-sling orphan
golang-github-dghubble-twitter orphan
golang-github-dgrijalva-jwt alexsaezm
golang-github-direnv-dotenv logic
golang-github-disintegration-gift mikep
golang-github-disintegration-imaging felixonmars zsun
golang-github-djherbis-atime qulogic
golang-github-djherbis-buffer eclipseo
golang-github-djherbis-nio eclipseo
golang-github-djherbis-times jchaloup mikelo2
golang-github-dlclark-regexp2 athoscr
golang-github-dnaeon-vcr alexsaezm jchaloup
golang-github-dnsimple eclipseo
golang-github-docker-credential-helpers alexsaezm
golang-github-docker-go mikelo2
golang-github-docker-slim-uilive eclipseo
golang-github-docker-slim-uiprogress eclipseo
golang-github-docker-slim-update eclipseo
golang-github-docopt mikelo2
golang-github-dop251-scsu orphan
golang-github-dpotapov-spnego qulogic
golang-github-dropbox-sdk-unofficial jchaloup mikelo2
golang-github-droundy-goopt bdperkin
golang-github-dsnet-golib orphan
golang-github-dustin-humanize mikelo2
golang-github-dvsekhvalnov-jose2go jchaloup mikelo2
golang-github-eapache-queue mikelo2
golang-github-eapache-resiliency mikelo2
golang-github-eapache-xerial-snappy mikelo2
golang-github-eclesh-welford abulimov dcavalca
golang-github-eclipse-paho-mqtt linkdupont
golang-github-edsrzf-mmap alexsaezm
golang-github-eknkc-amber athoscr
golang-github-elazarl-bindata-assetfs eclipseo
golang-github-elithrar-simple-scrypt saluki
golang-github-ema-qdisc fuller
golang-github-emersion-imap eclipseo
golang-github-emersion-imap-sortthread eclipseo
golang-github-emersion-maildir eclipseo
golang-github-emersion-message eclipseo
golang-github-emersion-pgpmail eclipseo
golang-github-emersion-sasl eclipseo
golang-github-emersion-smtp eclipseo
golang-github-emersion-textwrapper eclipseo
golang-github-emicklei-restful alexsaezm
golang-github-emirpasic-gods orphan
golang-github-erikstmartin-testdb mikelo2
golang-github-errors alexsaezm
golang-github-evanw-esbuild mikep
golang-github-evanw-esbuild-0.8.20 mikep
golang-github-exponent-io-jsonpath eclipseo
golang-github-facebookgo-clock eclipseo
golang-github-facebookgo-subset dcavalca
golang-github-facebookincubator-contest dcavalca
golang-github-facebookincubator-dhcplb dcavalca
golang-github-fanliao-promise dcavalca
golang-github-fatih-camelcase eclipseo
golang-github-fatih-color mrunge
golang-github-fatih-structs logic
golang-github-fd0-termstatus orphan
golang-github-felixge-httpsnoop mikelo2
golang-github-fernet alexsaezm
golang-github-flynn-json5 eclipseo jchaloup
golang-github-flynn-noise fale
golang-github-fogleman-gg cheeselee zsun
golang-github-form3tech-oss-jwt alexsaezm
golang-github-fortytw2-leaktest athoscr
golang-github-francoispqt-gojay mikelo2
golang-github-franela-goblin mikelo2
golang-github-franela-goreq mikelo2
golang-github-frankban-quicktest alexsaezm
golang-github-fvbommel-util eclipseo
golang-github-gabriel-vasile-mimetype orphan
golang-github-geertjohan-incremental eclipseo
golang-github-gehirninc-crypt bdperkin
golang-github-genuinetools-pkg eclipseo
golang-github-getkin-kin-openapi bdperkin mikep
golang-github-ghodss-yaml jchaloup mikelo2
golang-github-gin-contrib-cors trix
golang-github-gin-contrib-sse mikelo2
golang-github-gin-gonic alexsaezm
golang-github-git-gcfg mikelo2
golang-github-git-lfs-gitobj-2 qulogic
golang-github-git-lfs-netrc qulogic
golang-github-git-lfs-pktline qulogic
golang-github-git-lfs-wildmatch-2 qulogic
golang-github-glendc-gopher-json eclipseo
golang-github-globalsign-mgo alexsaezm jchaloup
golang-github-gobuffalo-envy athoscr
golang-github-gobuffalo-flect qulogic
golang-github-gobuffalo-here eclipseo
golang-github-gobuffalo-logger mikelo2
golang-github-gobuffalo-packd mikelo2
golang-github-gobuffalo-packr mikelo2
golang-github-gobwas-glob athoscr
golang-github-gobwas-httphead orphan
golang-github-gobwas-pool orphan
golang-github-gobwas-ws orphan
golang-github-goccy-json eclipseo
golang-github-gocql  mikelo2
golang-github-gofrs-uuid alexsaezm
golang-github-gogs-chardet eclipseo
golang-github-gohugoio-locales mikep
golang-github-gohugoio-localescompressed mikep
golang-github-gojuno-minimock dcavalca
golang-github-gokyle-twofactor fale
golang-github-golangci-lint-1 obudai
golang-github-golangplus-bytes qulogic
golang-github-golangplus-fmt qulogic
golang-github-golangplus-testing qulogic
golang-github-gomarkdown-markdown eclipseo
golang-github-google-goterm dcavalca
golang-github-google-pprof jchaloup mikelo2
golang-github-google-querystring mikelo2
golang-github-gookit-color orphan
golang-github-gorilla-csrf mikelo2
golang-github-gorilla-css athoscr
golang-github-gorilla-handlers jchaloup mikelo2
golang-github-gorilla-schema alexsaezm
golang-github-gorilla-securecookie jchaloup mikelo2
golang-github-gorilla-sessions jchaloup mikelo2
golang-github-gorp-3 dcavalca
golang-github-gosexy-gettext zyga
golang-github-gosuri-uilive dcavalca
golang-github-graylog2-gelf alexsaezm
golang-github-gregjones-httpcache jchaloup mikelo2
golang-github-grpc-ecosystem-gateway alexsaezm
golang-github-grpc-ecosystem-gateway-2 fale
golang-github-gucumber eclipseo
golang-github-guregu-null eclipseo
golang-github-h2non-parth mikelo2
golang-github-hailocab-hostpool mikelo2
golang-github-hairyhenderson-codeowners mikep
golang-github-hako-durafmt qulogic
golang-github-harrymichal-version harrymichal
golang-github-hashicorp-hclog alexsaezm
golang-github-hashicorp-mdns jchaloup orphan
golang-github-hashicorp-msgpack fuller
golang-github-hashicorp-syslog dcavalca
golang-github-hdrhistogram mikelo2
golang-github-henvic-httpretty orphan
golang-github-hexdigest-gowrap dcavalca
golang-github-hhrutter-lzw fale
golang-github-hhrutter-tiff fale
golang-github-hinshun-vt10x jdoss mikelo2
golang-github-hodgesds-perf-utils fuller
golang-github-hsiafan-glow orphan
golang-github-hsiafan-vlog orphan
golang-github-huandu-xstrings mikelo2
golang-github-hub    jaymzh
golang-github-hudl-fargo alexsaezm
golang-github-hugelgupf-socketpair dcavalca
golang-github-hydrogen18-memlistener alexsaezm
golang-github-ianbruene-difflib dfateyev
golang-github-iancoleman-strcase alexsaezm
golang-github-ianlancetaylor-demangle jchaloup mikelo2
golang-github-iguanesolutions-systemd-5 orphan
golang-github-inconshreveable-log15 nathans
golang-github-influxdata-influxdb1-client mikelo2
golang-github-insomniacslk-termhook dcavalca
golang-github-insomniacslk-xjson dcavalca
golang-github-itchyny-timefmt orphan
golang-github-j-keck-arping eclipseo
golang-github-jackc-chunkreader-2 linkdupont
golang-github-jackc-pgconn eclipseo
golang-github-jackc-pgio eclipseo
golang-github-jackc-pgpassfile eclipseo
golang-github-jackc-pgproto3 eclipseo
golang-github-jackc-pgservicefile eclipseo
golang-github-jackc-pgtype eclipseo
golang-github-jackc-pgx eclipseo
golang-github-jackc-puddle eclipseo
golang-github-jarcoal-httpmock mikelo2
golang-github-jawher-mow-cli eclipseo
golang-github-jbenet-context orphan
golang-github-jdkato-prose athoscr
golang-github-jedisct1-clocksmith eclipseo jchaloup
golang-github-jedisct1-dlog eclipseo jchaloup
golang-github-jedisct1-dnsstamps eclipseo jchaloup
golang-github-jedisct1-hpke-compact eclipseo
golang-github-jedisct1-minisign eclipseo jchaloup
golang-github-jedisct1-xsecretbox eclipseo jchaloup
golang-github-jeffail-gabs mikelo2
golang-github-jessevdk-flags mikelo2
golang-github-jhillyerd-enmime eclipseo
golang-github-jinzhu-gorm mikelo2
golang-github-jinzhu-inflection mikelo2
golang-github-jinzhu-now qulogic
golang-github-jlaffaye-ftp jchaloup orphan
golang-github-jmhodges-clock alexsaezm
golang-github-jmoiron-sqlx alexsaezm
golang-github-joho-godotenv fuller
golang-github-josharian-intern mikelo2
golang-github-jpillora-ansi orphan
golang-github-jpillora-backoff orphan
golang-github-jpillora-requestlog orphan
golang-github-jpillora-sizestr orphan
golang-github-jpillora-tld orphan
golang-github-jsimonetti-pwscheme fale
golang-github-jsimonetti-rtnetlink fuller
golang-github-json-iterator mikelo2
golang-github-jtolds-gls jchaloup mikelo2
golang-github-julienschmidt-httprouter jchaloup mikelo2
golang-github-jwt    gundersanne obudai
golang-github-jwt-4  alexsaezm
golang-github-jzelinskie-whirlpool orphan
golang-github-k-sone-critbitgo eclipseo jchaloup
golang-github-k0kubun-ansi mikelo2
golang-github-kalafut-imohash dcavalca
golang-github-kardianos-osext fuller
golang-github-kardianos-service jchaloup mhayden
golang-github-karrick-godirwalk mikelo2
golang-github-karrick-golf mikelo2
golang-github-kballard-shellquote mikelo2
golang-github-kelvins-sunrisesunset cheeselee
golang-github-kennygrant-sanitize eclipseo
golang-github-kevinburke-ssh-config orphan
golang-github-kisielk-sqlstruct mikelo2
golang-github-kisom-goutils eclipseo
golang-github-kit    alexsaezm
golang-github-kit-log alexsaezm
golang-github-klauspost-cpuid mrunge
golang-github-klauspost-pgzip dcavalca
golang-github-knetic-govaluate alexsaezm
golang-github-kolo-xmlrpc alexsaezm
golang-github-koofr-httpclient mikelo2
golang-github-koofr-koofrclient orphan
golang-github-koppacetic-gpsd eclipseo
golang-github-kr-binarydist orphan
golang-github-kr-fs  jchaloup mikelo2
golang-github-kr-pretty alexsaezm jchaloup
golang-github-kr-pty jchaloup mikelo2
golang-github-kr-text alexsaezm jchaloup
golang-github-kyoh86-xdg eclipseo
golang-github-kyokomi-emoji athoscr olem
golang-github-labbsr0x-bindman-dns-webhook eclipseo
golang-github-labbsr0x-goh eclipseo
golang-github-labstack-echo-4 mikelo2
golang-github-labstack-gommon obudai
golang-github-lair-framework-nmap orphan
golang-github-lann-builder dcavalca
golang-github-lann-ps dcavalca
golang-github-leodido-urn mikelo2
golang-github-lestrrat-apache-logformat bdperkin
golang-github-lestrrat-envload bdperkin
golang-github-lestrrat-strftime bdperkin
golang-github-leveldb eclipseo
golang-github-liamg-scout orphan
golang-github-liamg-tml orphan
golang-github-lib-pq mikelo2
golang-github-libgit2-git2go qulogic
golang-github-liggitt-tabwriter eclipseo
golang-github-linode-linodego mikep
golang-github-lithammer-dedent eclipseo
golang-github-lithammer-fuzzysearch atim orphan
golang-github-lofanmi-pinyin cheeselee
golang-github-logfmt alexsaezm
golang-github-logrusorgru-aurora orphan
golang-github-lucasb-eyer-colorful qulogic
golang-github-lunixbochs-vtclean dreua
golang-github-magiconair-properties mikelo2
golang-github-mailru-easyjson mikelo2
golang-github-makenowjust-heredoc mikelo2
golang-github-malfunkt-iprange orphan
golang-github-manifoldco-promptui eclipseo
golang-github-marcinbor85-gohex qulogic
golang-github-markbates-errx mikelo2
golang-github-markbates-oncer mikelo2
golang-github-markbates-pkger eclipseo
golang-github-markbates-safe mikelo2
golang-github-marten-seemann-qpack orphan
golang-github-martinhoefling-goxkcdpwgen fale
golang-github-martini alexsaezm
golang-github-masterminds-semver fuller
golang-github-masterminds-semver-1 eclipseo
golang-github-masterminds-vcs dcavalca
golang-github-matryer-try qulogic
golang-github-mattn-colorable mikelo2
golang-github-mattn-ieproxy mikelo2
golang-github-mattn-isatty mikelo2
golang-github-mattn-pointer v02460
golang-github-mattn-runewidth mikelo2
golang-github-mattn-shellwords qulogic
golang-github-mattn-sqlite3 mikelo2
golang-github-mattn-tty fale
golang-github-mattn-xmlrpc fuller
golang-github-max-sum-base32768 orphan
golang-github-mdlayher-dhcp6 orphan
golang-github-mdlayher-ethernet dcavalca
golang-github-mdlayher-genetlink fuller
golang-github-mdlayher-netlink dcavalca
golang-github-mdlayher-raw dcavalca
golang-github-mdlayher-wifi copperi
golang-github-mesos  eclipseo
golang-github-mgutz-ansi logic
golang-github-mgutz-logxi logic
golang-github-michaelklishin-rabbit-hole logic
golang-github-miekg-pkcs11 alexsaezm
golang-github-mikioh-ipaddr eclipseo
golang-github-miolini-datacounter eclipseo
golang-github-mitchellh-colorstring mikelo2
golang-github-mitchellh-copystructure alexsaezm
golang-github-mitchellh-hashstructure qulogic
golang-github-mitchellh-hashstructure-2 fuller
golang-github-mitchellh-homedir mikelo2
golang-github-mitchellh-mapstructure jchaloup mikelo2
golang-github-mitchellh-ps orphan
golang-github-mitchellh-reflectwalk alexsaezm
golang-github-mitchellh-testing-interface eclipseo
golang-github-mitchellh-vnc eclipseo
golang-github-mitchellh-wordwrap mikelo2
golang-github-mmarkdown-mmark eclipseo
golang-github-mndrix-tap eclipseo
golang-github-mohae-deepcopy alexsaezm
golang-github-montanaflynn-stats athoscr
golang-github-morikuni-aec alexsaezm
golang-github-mozillazg-pinyin cheeselee
golang-github-mr-tron-base58 eclipseo
golang-github-mreiferson-httpclient mikelo2
golang-github-mroach-rom64 dcavalca
golang-github-msteinert-pam felixonmars zsun
golang-github-muesli-crunchy orphan
golang-github-muesli-reflow jdoss mikelo2
golang-github-muesli-smartcrop athoscr
golang-github-muesli-termenv jdoss mikelo2
golang-github-muhammadmuzzammil1998-jsonc orphan
golang-github-multiformats-base32 eclipseo
golang-github-multiformats-base36 eclipseo
golang-github-multiformats-multibase eclipseo
golang-github-mvo5-goconfigparser zyga
golang-github-mvo5-uboot eclipseo
golang-github-mxk-flowrate mikelo2
golang-github-namedotcom eclipseo
golang-github-naoina-stringutil eclipseo
golang-github-naoina-toml eclipseo
golang-github-natefinch-pie orphan
golang-github-nathanaelle-syslog5424-2 bdperkin
golang-github-nbutton23-zxcvbn orphan
golang-github-ncw-acd jchaloup orphan
golang-github-ncw-swift alexsaezm jchaloup
golang-github-ncw-swift-2 orphan
golang-github-nfnt-resize felixonmars zsun
golang-github-nicksnyder-i18n qulogic
golang-github-nicksnyder-i18n-2 qulogic
golang-github-nightlyone-lockfile eclipseo
golang-github-niklasfasching-org qulogic
golang-github-npat-efault-poller orphan
golang-github-nrdcg-dnspod eclipseo
golang-github-nrdcg-goinwx eclipseo
golang-github-ns3777k-shodan orphan
golang-github-nsf-termbox eclipseo jchaloup
golang-github-nu7hatch-gouuid eclipseo
golang-github-nwaples-rardecode orphan
golang-github-nwidger-jsoncolor eclipseo jchaloup
golang-github-nxadm-tail mikelo2
golang-github-olekukonko-tablewriter mikelo2
golang-github-olekukonko-ts eclipseo
golang-github-olivere-env orphan
golang-github-onsi-ginkgo jchaloup mikelo2
golang-github-onsi-gomega jchaloup mikelo2
golang-github-op-logging mikelo2
golang-github-openapi-inflect dcavalca
golang-github-opentracing-basictracer eclipseo
golang-github-oschwald-geoip2 eclipseo
golang-github-oschwald-maxminddb eclipseo
golang-github-otiai10-copy mikelo2
golang-github-otiai10-mint mikelo2
golang-github-owenrumney-sarif mikelo2
golang-github-pact-foundation eclipseo
golang-github-parnurzeal-gorequest orphan
golang-github-path-network-mmproxy dcavalca
golang-github-patrickmn-cache mikelo2
golang-github-pborman-getopt mikelo2
golang-github-pborman-uuid eclipseo
golang-github-pelletier-toml-2 mikep
golang-github-performancecopilot-speed alexsaezm
golang-github-peterbourgon-diskv jchaloup mikelo2
golang-github-peterh-liner eclipseo
golang-github-peterhellberg-link eclipseo
golang-github-pgaskin-koboutils dcavalca
golang-github-phayes-freeport orphan
golang-github-phayes-permbits alexsaezm
golang-github-philhofer-fwd mikelo2
golang-github-pierrec-cmdflag mikelo2
golang-github-pierrre-geohash eclipseo
golang-github-pingcap-errors alexsaezm
golang-github-pkg-browser mikelo2
golang-github-pkg-diff dcavalca
golang-github-pkg-term dcavalca
golang-github-playground-assert-2 mikelo2
golang-github-playground-locales mikelo2
golang-github-playground-universal-translator mikelo2
golang-github-playground-validator-10 alexsaezm
golang-github-pmezard-difflib mikelo2
golang-github-posener-complete alexsaezm
golang-github-posener-complete-2 eclipseo
golang-github-powerman-check eclipseo
golang-github-powerman-deepequal eclipseo
golang-github-pressly-goose dcavalca
golang-github-projectdiscovery-blackrock mikelo2
golang-github-projectdiscovery-cdncheck orphan
golang-github-projectdiscovery-clistats orphan
golang-github-projectdiscovery-fdmax orphan
golang-github-projectdiscovery-fileutil orphan
golang-github-projectdiscovery-goflags orphan
golang-github-projectdiscovery-gologger orphan
golang-github-projectdiscovery-hmap mikelo2
golang-github-projectdiscovery-httputil orphan
golang-github-projectdiscovery-httpx orphan
golang-github-projectdiscovery-ipranger orphan
golang-github-projectdiscovery-iputil orphan
golang-github-projectdiscovery-reflectutil mikelo2
golang-github-projectdiscovery-retryabledns orphan
golang-github-projectdiscovery-sliceutil orphan
golang-github-projectdiscovery-stringsutil orphan
golang-github-puerkitobio-purell alexsaezm
golang-github-puerkitobio-urlesc alexsaezm
golang-github-putdotio-putio orphan
golang-github-quay-goval-parser eclipseo
golang-github-racingmars-go3270 dcavalca
golang-github-radovskyb-watcher fuller
golang-github-rasky-xdr mikelo2
golang-github-rclone-ftp orphan
golang-github-rcrowley-metrics alexsaezm
golang-github-redteampentesting-monsoon orphan
golang-github-reiver-oi orphan
golang-github-reiver-telnet orphan
golang-github-remeh-sizedwaitgroup mikelo2
golang-github-remyoudompheng-bigfft eclipseo jchaloup
golang-github-restic-chunker saluki
golang-github-revel  alexsaezm
golang-github-revel-log15 alexsaezm
golang-github-revel-pathtree alexsaezm
golang-github-rfjakob-eme jchaloup orphan
golang-github-rican7-retry eclipseo
golang-github-rivo-tview orphan
golang-github-rivo-uniseg jdoss
golang-github-riywo-loginshell eclipseo
golang-github-rjeczalik-notify linkdupont
golang-github-robertkrimen-otto eclipseo jchaloup
golang-github-rodaine-hclencoder bdperkin
golang-github-rogpeppe-fastuuid alexsaezm
golang-github-rs-cors alexsaezm
golang-github-rs-xid mikelo2
golang-github-rs-zerolog mikelo2
golang-github-rubyist-tracerx fuller
golang-github-rwcarlsen-goexif mikep
golang-github-ryanuber-columnize alexsaezm jchaloup
golang-github-ryanuber-glob eclipseo
golang-github-sabhiram-gitignore eclipseo
golang-github-sagikazarmark-crypt orphan
golang-github-saintfish-chardet orphan
golang-github-samuel-zookeeper eclipseo
golang-github-sanity-io-litter qulogic
golang-github-saracen-walker qulogic
golang-github-schollz-cli-2 dcavalca
golang-github-schollz-closestmatch fale
golang-github-schollz-croc dcavalca
golang-github-schollz-logger dcavalca
golang-github-schollz-mnemonicode dcavalca
golang-github-schollz-pake-3 dcavalca
golang-github-schollz-peerdiscovery dcavalca
golang-github-schollz-progressbar-2 dcavalca
golang-github-schollz-progressbar-3 dcavalca
golang-github-sean-seed alexsaezm
golang-github-segmentio-ksuid gundersanne
golang-github-serialx-hashring alexsaezm
golang-github-sevlyar-daemon eclipseo jchaloup
golang-github-sgreben-flagvar linkdupont
golang-github-shellcode33-vm-detection orphan
golang-github-shiena-ansicolor jchaloup mikelo2
golang-github-shogo82148-shuffle mikep
golang-github-shopify-logrus-bugsnag alexsaezm
golang-github-shopify-sarama alexsaezm
golang-github-shopify-toxiproxy eclipseo
golang-github-shopspring-decimal alexsaezm jchaloup
golang-github-shurcool-githubv4 orphan
golang-github-shurcool-graphql mikelo2
golang-github-shurcool-httpfs alexsaezm jchaloup
golang-github-shurcool-httpgzip alexsaezm jchaloup
golang-github-shurcool-vfsgen alexsaezm
golang-github-siddontang eclipseo
golang-github-siddontang-rdb eclipseo
golang-github-siddontang-snappy eclipseo
golang-github-sirupsen-logrus alexsaezm
golang-github-skip2-qrcode fale
golang-github-skratchdot-open orphan
golang-github-smartystreets-assertions jchaloup mikelo2
golang-github-smartystreets-aws-auth eclipseo
golang-github-smartystreets-goconvey alexsaezm jchaloup
golang-github-smartystreets-gunit eclipseo
golang-github-snapcore-gettext bboozzoo zyga
golang-github-songgao-water orphan
golang-github-sony-gobreaker alexsaezm
golang-github-sophaskins-efs2tar dcavalca
golang-github-soundcloud-runit fuller
golang-github-sourcegraph-annotate eclipseo jchaloup
golang-github-sourcegraph-jsonrpc2 mikelo2
golang-github-sourcegraph-syntaxhighlight eclipseo jchaloup
golang-github-spf13-cast mikelo2
golang-github-spf13-fsync athoscr fale
golang-github-spf13-jwalterweatherman qulogic
golang-github-spf13-viper mikelo2
golang-github-spyzhov-ajson eclipseo
golang-github-ssgelm-cookiejarparser qulogic
golang-github-ssor-bom eclipseo
golang-github-stack  nathans
golang-github-stathat alexsaezm
golang-github-stoewer-strcase alexsaezm
golang-github-streadway-amqp logic
golang-github-streadway-handy alexsaezm
golang-github-stretchr-objx fale jchaloup mikelo2
golang-github-stretchr-testify fale jchaloup mikelo2
golang-github-subosito-gotenv qulogic
golang-github-syndtr-goleveldb jchaloup mikelo2
golang-github-t3rm1n4l-mega orphan
golang-github-task   fuller
golang-github-tchap-patricia alexsaezm
golang-github-tdewolff-minify qulogic
golang-github-tdewolff-parse qulogic
golang-github-tdewolff-test qulogic
golang-github-teambition-rrule cheeselee
golang-github-temoto-robotstxt orphan
golang-github-termie-shutil dfateyev
golang-github-test-deep eclipseo jchaloup mikelo2
golang-github-theupdateframework-notary alexsaezm
golang-github-thlib-timezone-local mikelo2
golang-github-thoas-funk alexsaezm
golang-github-thoj-ircevent eclipseo
golang-github-tidwall-pretty mikelo2
golang-github-tinylib-msgp alexsaezm
golang-github-tj-assert mikep
golang-github-tj-buffer mikep
golang-github-tj-spin mikep
golang-github-tmc-grpc-websocket-proxy alexsaezm
golang-github-tomasen-realip alexsaezm
golang-github-tomnomnom-linkheader orphan
golang-github-tomnomnom-rawhttp orphan
golang-github-tonistiigi-actions-cache alexsaezm
golang-github-tonistiigi-fsutil alexsaezm
golang-github-tonistiigi-units alexsaezm
golang-github-tonistiigi-vt100 alexsaezm
golang-github-transip-gotransip eclipseo
golang-github-tscholl2-siec dcavalca
golang-github-ttacon-chalk alexsaezm
golang-github-tv42-httpunix mikelo2
golang-github-twinj-uuid alexsaezm
golang-github-twmb-murmur3 dcavalca
golang-github-twpayne-pinentry laiot
golang-github-twpayne-waypoint eclipseo
golang-github-u-root-iscsinl dcavalca
golang-github-uber-athenadriver eclipseo
golang-github-uber-tally alexsaezm
golang-github-ugorji alexsaezm
golang-github-ulikunitz-xz orphan
golang-github-urfave-cli alexsaezm
golang-github-urfave-cli-2 mikelo2 nathans
golang-github-urfave-negroni alexsaezm
golang-github-valyala-bytebufferpool alexsaezm
golang-github-valyala-fasthttp orphan
golang-github-valyala-fasttemplate alexsaezm
golang-github-valyala-tcplisten orphan
golang-github-vincent-petithory-dataurl blowry
golang-github-vividcortex-ewma jchaloup mikelo2
golang-github-vividcortex-gohistogram alexsaezm
golang-github-vividcortex-mysqlerr nathans saluki
golang-github-vivint-infectious orphan
golang-github-vtolstov-ioctl dcavalca
golang-github-weppos-publicsuffix mikelo2
golang-github-x-cray-logrus-prefixed-formatter dcavalca
golang-github-xeonx-timeago alexsaezm
golang-github-xiang90-probing alexsaezm jchaloup
golang-github-xlab-handysort saluki
golang-github-xlab-treeprint alexsaezm
golang-github-xlzd-gotp mikelo2
golang-github-xo-terminfo eclipseo
golang-github-xordataexchange-crypt eclipseo
golang-github-xrash-smetrics mikelo2
golang-github-yl2chen-cidranger orphan
golang-github-youmark-pkcs8 orphan
golang-github-yudai-golcs nathans
golang-github-yuin-goldmark qulogic
golang-github-yuin-goldmark-emoji mikelo2
golang-github-yuin-gopher-lua eclipseo jchaloup
golang-github-yvasiyarov-gorelic alexsaezm
golang-github-yvasiyarov-newrelic-platform alexsaezm
golang-github-zclconf-cty mikelo2
golang-github-zeebo-errs orphan
golang-github-ziutek-mymysql dcavalca
golang-github-ziutek-telnet dcavalca
golang-github-zookeeper-zk alexsaezm
golang-github-zyedidia-glob eclipseo jchaloup
golang-github-zyedidia-pty eclipseo jchaloup
golang-github-zyedidia-terminal eclipseo jchaloup
golang-gitlab-commonmark-linkify eclipseo
golang-gitlab-esr-fqme dfateyev
golang-gitlab-yawning-utls eclipseo
golang-goftp-server  orphan
golang-gonum-1       alexsaezm
golang-gopkg-alecthomas-kingpin-2 fuller
golang-gopkg-asn1-ber-1 eclipseo
golang-gopkg-check-1 mikelo2
golang-gopkg-cheggaaa-pb-1 alexsaezm
golang-gopkg-errgo-2 dcavalca
golang-gopkg-gcfg-1  alexsaezm
golang-gopkg-gorp-1  dcavalca
golang-gopkg-h2non-gock-1 mikelo2
golang-gopkg-inf-0   mikelo2
golang-gopkg-logex-1 mikelo2
golang-gopkg-macaroon-1 eclipseo
golang-gopkg-mgo-2   eclipseo
golang-gopkg-natefinch-lumberjack-2 alexsaezm jchaloup
golang-gopkg-neurosnap-sentences-1 mikep
golang-gopkg-olivere-elastic-2 eclipseo
golang-gopkg-op-logging-1 adrian gotmax23 jrische
golang-gopkg-readline-1 alexsaezm jchaloup
golang-gopkg-redis-6 alexsaezm
golang-gopkg-robfig-cron-3 fale
golang-gopkg-russross-blackfriday-1 alexsaezm
golang-gopkg-russross-blackfriday-2 alexsaezm dfateyev
golang-gopkg-tylerb-is-1 dcavalca
golang-gopkg-warnings-0 mikelo2
golang-gorm          eclipseo
golang-jaytaylor-html2text eclipseo
golang-moul-http2curl orphan
golang-mozilla-pkcs7 alexsaezm
golang-mvdan-editorconfig dcavalca
golang-mvdan-sh-3    dcavalca
golang-mvdan-xurls   alexsaezm
golang-nhooyr-websocket mikep
golang-rsc-binaryregexp alexsaezm
golang-rsc-pdf       mikelo2
golang-schwanenlied-yawning-bsaes eclipseo
golang-sourcegraph-appdash eclipseo
golang-sourcegraph-appdash-data eclipseo
golang-starlark      alexsaezm
golang-uber-atomic   mikelo2
golang-uber-automaxprocs olem
golang-uber-config   eclipseo
golang-uber-dig      eclipseo
golang-uber-fx       eclipseo
golang-uber-goleak   orphan
golang-uber-multierr mikelo2
golang-uber-ratelimit mikelo2
golang-uber-zap      mikelo2
golang-x-arch        alexsaezm
golang-x-debug       alexsaezm jchaloup
golang-x-image       alexsaezm
golang-x-lint        alexsaezm
golang-x-mobile      alexsaezm
golang-x-term        alexsaezm
golang-x-tools       fuller qulogic
golang-x-xerrors     alexsaezm
golang-xorm-builder  eclipseo
goloris              orphan
gotags               jchaloup
gpick                luya
gpsim                rrankin
gqrx                 daveo jskarvad
grace                jamatos terjeros
grantlee-qt5         marcdeop
gravity-beams-and-evaporating-stars suve
gretl                hannes
greybird             kevin lbazan nonamedotc
grilo-plugins        victortoso
grimmer-proggy-squaresz-fonts bojan
grimmer-proggy-tinysz-fonts bojan
grin                 terjeros
gsequencer           jkraehemann nonamedotc
gsmartcontrol        vascom vtrefny
gssdp                ellert kalev
gst123               siddhesh
gstream              jwrdegoede
gstreamer-plugins-espeak chimosky wtaymans
gstreamer1-doc       limb wtaymans
gstreamer1-plugins-bad-free limb uraeus wtaymans yselkowitz
gstreamer1-rtsp-server limb wtaymans
gstreamer1-vaapi     farnz wtaymans
gstreamermm          rathann
gti                  ib54003
gtk+extra            rrankin
gtk-murrine-engine   raveit65 robert
gtk-sharp-beans      tpokorra
gtk-sharp2           laxathom rhughes rstrode tpokorra
gtk-sharp3           tpokorra
gtk-v4l              huzaifas
gtk2                 alexl mclasen mkasik rhughes rstrode
gtkdatabox           ework vascom
gtkimageview         nphilipp
gtkmm2.4             kalev
gtksourceview3       mclasen
gtksourceview4       pwalter
gtts                 pbrobinson
gtts-token           pbrobinson
gudev-sharp          tpokorra
guile30              tkorbar
guitarix             tartina verdurin
gummi                orphan
gupnp-av             kalev
gupnp-dlna           kalev
gwenview             marcdeop nucleo than
gxemul               spot
h5py                 orion stevetraylen terjeros
hakrevdns            orphan
halibut              jskarvad
hawknl               jwrdegoede
hawtjni              didiksupriadi41 mizdebsk
hdf                  orion sagitter
heimdall             echevemaster jorti luk1337
hexer                jvanek
hid4java             jonny
hiran-perizia-fonts  ankursinha
hiredis              cicku kevin orion
hitch                ingvar
horai-ume-fonts      kvolny
howl                 atim pwalter
hpl                  jskarvad
htmlcxx              martinkg
htmltest             qulogic
htslib               jaruga
http_ping            alciregi
httperf              thm
httprobe             jonathanspw
hugs98               petersen
hxtools              cicku till
hylafax+             faxguy
hyperrogue           dulsi
hyperscan            jtaylor
i3-gaps              defolos
i3lock               cicku defolos fale
iagno                mclasen
ibm-plex-fonts       suraia
ibsim                honli
ibus-table-chinese   mfabian pwu
icc-profiles-basiccolor-printing2009 kwizart
icc-profiles-openicc kwizart
icestorm             lkundrak somlo
id3lib               adrian amigadave
ignition-cmake       rmattes
igt-gpu-tools        airlied lyude
iguanaIR             leamas
ilmbase              kwizart rdieter
imapsync             jonathanspw nb
imaptest             robert
inertiablast         dulsi
infinipath-psm       honli
inkscape-psd         moceap
innoextract          adetiste moceap
insight              lkundrak monnerat
intel-compute-runtime aekoroglu frantisekz rathann
intel-igc            aekoroglu frantisekz
intel-mediasdk       aekoroglu rathann
intel-opencl-clang   aekoroglu frantisekz
intelhex             pbrobinson
iodine               somlo
ipa-gothic-fonts     tagoh
ipa-mincho-fonts     tagoh
ipa-pgothic-fonts    tagoh
ipa-pmincho-fonts    tagoh
ipe                  nonamedotc
ipmctl               aekoroglu
ipmiutil             orphan
iptstate             psutter salimma
irrlicht             orion spot
isl                  dhowells jakub law
iso-country-flags    tieugene
itcl                 krege orion
itk                  krege orion
itop                 flo
iv                   orphan
ivykis               czanik
iwidgets             krege orion
iwyu                 xvitaly
iyfct                mystro256
jack-audio-connection-kit nphilipp oget rathann tartina
jack-keyboard        tartina
jack-mixer           eeickmeyer
jacoco               didiksupriadi41 jvanek
jaero                vascom
jakarta-el           mbooth
jakarta-interceptors korkeala
jakarta-saaj         didiksupriadi41 mkoncek
jakarta-server-pages korkeala
jakarta-xml-ws       didiksupriadi41
jalv                 tartina
java-latest-openjdk  ahughes jerboaa jvanek pmikova
java-latest-openjdk-portable ahughes jandrlik jerboaa jvanek pmikova zzambers
java-packaging-howto mizdebsk
jaxen                jwrdegoede mizdebsk
jbosscache-support   orphan
jc                   salimma suve
jchardet             mbooth mizdebsk orion
jemalloc             ingvar
jericho-html         terjeros
jetty                mbooth mizdebsk
jfreechart           didiksupriadi41 lkundrak
jgoodies-common      melmorabity
jgoodies-forms       melmorabity
jgoodies-looks       melmorabity
jid                  eclipseo
jigawatts            jvanek
jmock                didiksupriadi41
jopt-simple          mbooth mizdebsk
jorbis               jwrdegoede
joystick-support     bruno
jpanoramamaker       jvanek
jpcre2               rathann
js-jquery            orion patches
js-jquery-mousewheel bowlofeggs ellert
js-jquery-ui         ellert
js-jquery-ui-touch-punch ellert
js-responsive-elements bowlofeggs
jsch-agent-proxy     mbooth mizdebsk
json-fortran         jussilehtola
json-parser          aekoroglu fkooman
json-table           orphan
jtc                  defolos
jtidy                mizdebsk spike
julia                nalimilan
julius               spot
jwm                  aekoroglu
jxrlib               smani
kBuild               laxathom lkundrak ngompa
kactivities          rdieter than
kakoune              atim jkonecny
kalibrate-rtl        jskarvad
kapman               rdieter than
kasts                thunderbirdtr
kate4                rdieter
katomic              rdieter than
kawa                 korkeala
kblackbox            rdieter than
kblocks              rdieter than
kbounce              rdieter than
kbrickbuster         jgrulich rdieter than
kcachegrind          jgrulich marcdeop
kcbench              thl
kcolorchooser        rdieter than
kdb                  marcdeop
kde-baseapps         rdieter than
kde-i18n             kkofler rdieter than
kde-l10n             rdieter than
kde-runtime          jgrulich kkofler rdieter than
kdebugsettings       marcdeop
kdegames3            kkofler rdieter than
kdepimlibs           jgrulich rdieter than
kdialog              marcdeop than
kdiamond             rdieter than
kdnssd-avahi         rdieter
kdsoap               farchord tdawson
keditbookmarks       marcdeop than
keepassxc            germano mikelo2 nonamedotc
kerberoast           orphan
kernel               acaringi airlied ajax jcline jforbes jwboyer jwrdegoede kernel-maint linville myoung patrickt sandeen steved
keybinder3           kevin m4rtink
keylime              ansasaki scorreia ueno
kf5-baloo            jgrulich rdieter than
kf5-kblog            rdieter
kf5-kdelibs4support  jgrulich rdieter than
kf5-kdesignerplugin  jgrulich rdieter than
kf5-kdewebkit        jgrulich rdieter than
kf5-khtml            jgrulich rdieter than
kf5-kirigami         rdieter
kf5-kirigami2        rdieter
kf5-kjs              jgrulich rdieter than
kf5-kjsembed         jgrulich rdieter
kf5-libkcddb         rdieter than
kfc                  dcavalca
kfind                marcdeop than
kfourinline          rdieter than
kget                 jkucera rdieter than
kgoldrunner          rdieter than
khal                 mathstuf mbaldessari
kicad                avigne lkundrak stevenfalco
kigo                 rdieter than
killbots             rdieter than
kiln                 eclipseo
kirc                 dcavalca
kiriki               rdieter than
kjumpingcube         rdieter than
klickety             rdieter than
klines               rdieter than
kmahjongg            rdieter than
kmid2                cheeselee kkofler
kmodtool             hobbes1069 kwizart leigh123linux nvieville slaanesh
kmplayer             moceap rdieter
kmscube              ernunes
knavalbattle         rdieter than
knetwalk             rdieter than
knotes               marcdeop than
koffice-kivio        kkofler rdieter
koji-containerbuild  cverna
koko                 aleasto
kolf                 rdieter than
kollision            rdieter than
kolourpaint          rdieter than
kongress             aleasto thunderbirdtr
konqueror            marcdeop than
konquest             rdieter than
kontact              marcdeop than
kpat                 rdieter than
kphotoalbum          marcdeop nucleo
kproperty            marcdeop
kqoauth-qt5          martinkg
krdc                 rdieter than
kreport              aleasto
kreversi             rdieter than
kshisen              rdieter than
ksirk                marcdeop than
ksnakeduel           rdieter than
kspaceduel           rdieter than
ksquares             rdieter than
kstart               ktdreyer orion stevetraylen
ksudoku              marcdeop than
ktikz                melmorabity
kubrick              rdieter than
kuser                kkofler
kuserfeedback        tdawson zawertun
kvirc                nucleo
kwave                ngompa
kwayland-server      jgrulich mkyral
kwebkitpart          nucleo rdieter than
kyua                 jonathanspw
labiryntowy-fonts    aekoroglu
ladspa               dcavalca ngompa wtaymans
lasi                 orion
laughlin-kde-theme   q5sys rdieter than
lazarus              suve
ldapdomaindump       orphan
ldc                  cicku kalev
ldeep                orphan
lector               aekoroglu
lensfun              germano grahamwhiteuk nphilipp rdieter trix
leonidas-kde-theme   q5sys rdieter than
leptonica            dchen smani
leveldb              gil peter stevetraylen tchaikov
levien-inconsolata-fonts kevin
lgogdownloader       blowry
lib765               vtrefny
libFS                ajax alexl bentiss rhughes rstrode
libHX                till
libQGLViewer         jussilehtola rmattes
libXcm               cicku kwizart
libXfont             ajax alexl bentiss rhughes rstrode
libXpresent          kevin raveit65
libXvMC              ajax alexl bentiss rhughes rstrode
libXxf86dga          ajax alexl bentiss jexposit rhughes rstrode
libXxf86misc         ajax alexl bentiss rhughes rstrode
libacars             vascom
libaccounts-glib     marcdeop
libaec               junghans
libaesgm             orion spot
libalkimia           rdieter
libappindicator      dcavalca echevemaster ngompa salimma tpokorra
libarcus             churchyard
libart               dcavalca
libart_lgpl          alexl rhughes rstrode yselkowitz
libass               ngompa xavierb
libast               terjeros
libax25              hobbes1069
libbatch             smani
libbluray            rathann slaanesh xavierb
libbonobo            alexl rhughes rstrode trawets
libbonoboui          alexl rhughes rstrode trawets
libbs2b              kvolny
libcaca              slaanesh xavierb
libcacard            crobinso elmarco jjelen jwrdegoede teuf
libcdaudio           pwalter
libcerf              jamatos junghans tdawson
libcgi               spot
libcgif              remi
libcgroup            jchaloup nforro
libchamplain         kalev
libchardet           martinkg
libcint              jussilehtola
libcircle            junghans
libclaw              lkundrak martinkg xavierb
libcmpiutil          trawets
libcoap              pbrobinson
libcompizconfig      jskarvad
libcorrect           vascom
libcryptui           pwalter raveit65
libcrystalhd         kwizart
libcutl              sagitter
libdasm              rebus
libdbi               fjanus limb
libdbi-drivers       fjanus limb
libdbusextended-qt5  zsun
libdigidocpp         cserpentis germano
libdnet              carlosrodrifernandez
libdockapp           sham1
libdrm-armada        lkundrak
libecpint            junghans
libefp               jussilehtola
libesmtp             dcavalca jonathanspw jskarvad
libetnaviv           lkundrak
libevdevPlus         ngompa wef
libfep               ueno
libfilteraudio       eclipseo
libfprint            benzea smallorange
libftdi              hobbes1069 robert sharkcz
libfullock           hiwkby
libgadu              rathann
libgamerzilla        dulsi
libgdamm             spot
libgdata             rishi
libgdiplus           laxathom rhughes rstrode tpokorra
libgeotiff           devrim orion smani
libgepub             kalev rishi
libgit2              cicku pwalter
libgit2-glib         ignatenkobrain kalev ngompa pwalter
libglade2            alexl rhughes rstrode yselkowitz
libgle               ajax
libglib-testing      kalev
libglpng             jwrdegoede
libgnome             alexl rhughes rstrode trawets
libgnome-keyring     mclasen rishi
libgnomecanvas       alexl rhughes rstrode yselkowitz
libgnomecanvasmm26   nphilipp verdurin
libgpod              alexl chkr limb rhughes rstrode teuf tpokorra
libgta               jkucera tdawson
libibcommon          dcavalca honli michich slaanesh steved
libicns              hobbes1069 musuruan xavierb
libidn1.34           rathann
libiec61883          nphilipp slaanesh
libime               yanqiyu
libinjection         ngompa
libirman             leamas ondrejj
libjoedog            besser82 cdamian
libkcddb             rdieter than yselkowitz
libkdegames          rdieter than
libkeduvocdocument   marcdeop
libkrunfw            slp
liblbfgs             smani
liblinear            besser82
liblo                nphilipp salimma tartina
liblxqt              rdieter tieugene zsun
liblzf               stevetraylen
libmash              rhughes
libmatekbd           raveit65 rdieter robert
libmateweather       raveit65 rdieter robert
libmatroska          kwizart ngompa rathann
libmcrypt            remi spot
libmikmod            aekoroglu jwrdegoede
libminc              ankursinha ignatenkobrain
libmodbus            sandeen
libmodman            trawets
libmp4v2             amigadave rathann
libmpris-qt5         cheeselee zsun
libmusicbrainz5      teuf
libmygpo-qt          marcdeop
libmypaint           nphilipp
libnetconf2          jruzicka mruprich
libnetfilter_acct    hushan
libnova              huzaifas
liboauth             salimma
liboil               ajax alexl rhughes rstrode trawets
libopkele            kevin
libopusenc           pbrobinson
libotr               pwouters
libpgf               nucleo orion rdieter tdawson
libphonenumber       ngompa thunderbirdtr
libpng               mhlavink mmuzila nforro phracek
libpng12             mhlavink mmuzila nforro phracek rdieter
libpng15             mhlavink mmuzila nforro phracek
libpqxx              besser82 mkrupcale
libprojectM          ngompa
libpsm2              honli kheib michich
libqtxdg             cicku lkundrak tieugene zsun
libqxt-qt5           martinkg
librabbitmq          remi
libraqm              moceap
libraw1394           nphilipp
librcd               kvolny
libreplaygain        ankursinha tdawson
libresample          jsmith
libretro-gw          atim
libretro-handy       atim
libretro-pcsx-rearmed atim
librs232             dwrobel
libsafec             aekoroglu
libsbw               sagitter
libscrypt            dfateyev
libsecp256k1         jonny peter slaanesh
libsedml             sagitter
libsexy              spot
libshout             jskarvad ngompa
libsoundio           jskarvad
libspf2              bojan
libspnav             hobbes1069
libsqlite3x          sailer tachoknight
libtar               huzaifas kdudka
libtermkey           asn salimma
libtoml              jeckersb
libtool              fberat fjanus jakub kasal praiskup
libtpcimgio          ankursinha
libtree              fnux
libtree-ldd          mikelo2
libtwin              dwmw2
libu2f-host          jonathanspw
libu2f-server        jonathanspw
libuInputPlus        ngompa wef
libucl               fnux
libudfread           xavierb
libuev               alciregi
libuninum            terjeros
libupnp              ajax cicku jdieter kwizart limb rathann slaanesh
libusb-compat-0.1    benzea smallorange
libusb1              benzea jwrdegoede smallorange victortoso
libusbauth-configparser kochstefan
libva-utils          kwizart
libva-v4l2-request   kwizart rathann
libvdpau-va-gl       kwizart
libvidcap            spot
libvirt-java         trawets
libvirt-python       berrange
libvirt-sandbox      jonathanspw
libvterm             asn salimma
libwebp              smani
libwebsockets        fab
libwfut              bruno
libwnck              alexl jonathanspw rhughes rstrode
libwpg               dtardon
libwvstreams         jskarvad msekleta thozza
libx86               jcpunk
libxdiff             spot
libxfce4ui           kevin nonamedotc orion
libxfce4util         kevin nonamedotc
libxo                kanitha
libyubikey           nb wzzrd
libyui               jonathanspw ngompa thunderbirdtr
libyui-gtk           jonathanspw ngompa thunderbirdtr
libyui-mga           jonathanspw ngompa thunderbirdtr
libyui-mga-gtk       jonathanspw ngompa thunderbirdtr
libyui-mga-ncurses   ngompa thunderbirdtr
libyui-mga-qt        jonathanspw ngompa thunderbirdtr
libzdb               cicku jujens
lightdm              besser82 leigh123linux raveit65 rdieter tdawson
lightdm-autologin-greeter ngompa
lilv                 nphilipp tartina
lincity-ng           spot
linode-cli           cicku mikelo2 nb
linux-firmware       dwmw2 jforbes jwboyer pbrobinson
linux-system-roles   ngompa pcahyna rmeggins spetros till
liquid-dsp           hobbes1069
lirc                 hobbes1069 kni leamas seanyoung
lis                  flo
litecli              carlwgeorge
llconf               ppisar
lld13                petersen sergesanspaille
lldpd                aconole
llvm11               petersen sergesanspaille tstellar
llvm12               petersen sergesanspaille
llvm13               petersen sergesanspaille
lmfit                churchyard junghans
lmms                 thm
lnav                 cicku pschiffe
log4c                stevetraylen valtri
log4cpp              stevetraylen
lolcat               cheese
lookup               mspacek
lordsawar            bruno
lovelock-kde-theme   q5sys rdieter than
lpairs               szpak
lpcnetfreedv         hobbes1069 robert
lpf                  leamas slaanesh
lrmi                 pwouters
lskat                rdieter than
lsw                  psabata
lua-alt-getopt       salimma
lua-argparse         caleb jonny
lua-basexx           jruzicka pspacek
lua-binaryheap       jruzicka
lua-bit32            asn salimma
lua-bitop            asn jruzicka orion
lua-compat53         jruzicka salimma
lua-coxpcall         fed500
lua-cqueues          jruzicka
lua-dbi              robert
lua-event            robert
lua-expat            robert
lua-fifo             jruzicka
lua-filesystem       robert salimma
lua-http             jruzicka
lua-inotify          salimma
lua-json             orion salimma
lua-ldap             chkr
lua-ldoc             thm
lua-lgi              thm
lua-loop             salimma
lua-lpeg             asn salimma
lua-lpeg-patterns    jruzicka
lua-luaossl          jruzicka
lua-lunitx           orion salimma
lua-lxc              thm
lua-markdown         thm
lua-md5              kevin
lua-mmdb             jruzicka
lua-moonscript       salimma
lua-mosquitto        dwrobel
lua-mpack            asn salimma
lua-penlight         thm
lua-posix            orion robert salimma
lua-psl              jruzicka
lua-readline         robert salimma
lua-sec              robert
lua-socket           robert
lua-sql              salimma
lua-term             orion
lua-unbound          robert
luabind              spot
luajit               asn siddhesh
luarocks             ktdreyer salimma
luit                 ajax ofourdan thomas-dickey
lumina-desktop       tieugene
lutok                mrc0mmand
lv2                  nphilipp slaanesh tartina
lv2-mdala-plugins    vascom
lxc                  sagarun thm
lxqt-about           rdieter tieugene
lxqt-openssh-askpass rdieter tieugene
lzma-sdk457          pwalter spot
mISDN                dwmw2
macromilter          robert
maeparser            fuller sagitter
maliit-framework     chimosky marcdeop
maliit-keyboard      jgrulich rdieter thunderbirdtr
mallard-rng          amigadave
man-pages-l10n       ljavorsk mfabian nforro
mangohud             atim
mapserver            devrim jujens neil pali smani
marco                raveit65 robert
marked               patches sdgathman
mass3                orphan
mate-applets         raveit65 rdieter robert
mate-control-center  raveit65 rdieter robert
mate-desktop         raveit65 rdieter robert
mate-icon-theme      raveit65 rdieter robert
mate-media           raveit65 rdieter robert
mate-menu            raveit65 robert
mate-menus           raveit65 rdieter robert
mate-panel           raveit65 rdieter robert
mate-polkit          raveit65 rdieter robert
mate-screensaver     raveit65 rdieter robert
mate-utils           raveit65 rdieter robert
mathjax              ellert zbyszek
mathomatic           terjeros
maven-native         deamn
mcrouter             salimma
mdbtools             jwrdegoede lkundrak
mdk                  filiperosset
meanwhile            slaanesh
media-player-info    mclasen
[...]
renep      tcl-mysqltcl
rffontenelle ddnet
rharwood   unclutter-xfixes
rhughes    dbus-sharp echo-icon-theme firefox gconf-editor gmime gnome-nettool gnome-sharp gtk-sharp2 gtk2 libFS libXfont libXvMC libXxf86dga libXxf86misc libart_lgpl libbonobo libbonoboui libgdiplus libglade2 libgnome libgnomecanvas libgpod libmash liboil libwnck mingw-colord mingw-libcroco rhythmbox tomboy totem unique unique3 xorg-x11-drv-ati yelp
rineau     octomap
rishi      cluttermm libgdata libgepub libgnome-keyring telepathy-logger
rjeffman   python-h2 python-hpack python-hyperframe python-ifaddr
rjones     mingw-atk mingw-bzip2 mingw-cairomm mingw-expat mingw-fontconfig mingw-freeglut mingw-gsl mingw-gtkmm24 mingw-libgcrypt mingw-libglade2 mingw-libglademm24 mingw-libgnurx mingw-libgpg-error mingw-libsigc++20 mingw-libsqlite3x mingw-libssh2 mingw-libxml++ mingw-libxml2 mingw-libxslt mingw-openssl mingw-orc mingw-plotmm mingw-portablexdr mingw-spice-gtk mingw-tcl mingw-wpcap mingw-zfstream mlton ocaml-base64 ocaml-cmdliner ocaml-curl
rmattes    GeographicLib SkyX assimp bullet cminpack fcl flann gazebo gearbox ignition-cmake libQGLViewer mosquitto nbc nqc octomap ompl openni python-catkin_lint python-rosinstall_generator qbrew sicktoolbox tinyobjloader tinyxml2
rmeggins   ansible-collection-microsoft-sql linux-system-roles
rnc        cekit
robert     SDL_sound atril audacious-plugins caja caja-actions dehydrated engrampa eom esound gtk-murrine-engine imaptest libftdi libmatekbd libmateweather lpcnetfreedv lua-dbi lua-event lua-expat lua-filesystem lua-posix lua-readline lua-sec lua-socket lua-unbound macromilter marco mate-applets mate-control-center mate-desktop mate-icon-theme mate-media mate-menu mate-menus mate-panel mate-polkit mate-screensaver mate-utils mod_log_post mozo msoffcrypto-tool openvpn-auth-ldap pcsc-cyberjack perl-Date-Holidays-DE pluma prosody python-natsort python-oletools t1utils thc-ipv6 xforms
romaingeissler1a python-chai python-constantly python-cssselect python-deepdiff python-docopt python-gunicorn python-jedi python-pytest-trio python-socksio python-twisted
rombobeorn ahven fedora-gnat-project-common gnat-srpm-macros
rominf     python-accept-types python-executing python-exoscale python-folium python-gnupg python-google-i18n-address python-more-itertools python-odata-query python-pyspf python-pytest-localserver python-requests-exoscale-auth python-sentry-sdk python-sly python-stripe python-tokenize-rt python-twilio python-xml2rfc python-zxcvbn
rommell    python-accept-types python-exoscale python-folium python-gnupg python-google-i18n-address python-odata-query python-pytest-localserver python-requests-exoscale-auth python-sentry-sdk python-sly python-stripe python-twilio python-xml2rfc python-zxcvbn
rrankin    gpsim gtk+extra
rstrode    aisleriot dbus-sharp echo-icon-theme firefox gconf-editor gmime gnome-nettool gnome-sharp gnome-system-log gtk-sharp2 gtk2 libFS libXfont libXvMC libXxf86dga libXxf86misc libart_lgpl libbonobo libbonoboui libgdiplus libglade2 libgnome libgnomecanvas libgpod liboil libwnck rhythmbox totem xorg-x11-drv-ati yelp
sagarun    ArpON cowpatty emacs-irsim-mode lxc
sagitter   MUMPS avogadro2 avogadro2-libs coin-or-DyLP coin-or-Ipopt coin-or-Vol combblas crossguid2 hdf libcutl libsbw libsedml maeparser mmtf-cpp nativejit openmeeg python-environs python-html5lib python-pmw qcad qwtplot3d scons smoldyn superlu_dist xsd
sailer     ghdl libsqlite3x mingw-cairomm mingw-drmingw mingw-gtkmm24 mingw-jimtcl mingw-lcms mingw-lcms2 mingw-libconfuse mingw-libftdi mingw-libglade2 mingw-libglademm24 mingw-libsigc++20 mingw-libsqlite3x mingw-libxml++ mingw-mpfr mingw-plotmm mingw-sparsehash mingw-tcl mingw-wpcap mingw-zfstream octave-general octave-interval octave-optim octave-specfun
salimma    asahi-scripts bpython bsdiff btrfs-fuse build-constraints-rpm-macros colorized-logs compat-lua cpdup cpputest disciplining-minipod dispenso dnf-plugin-cow fennel folly-rpm-macros geary gnome-js-common gnome-keyring-sharp iptstate jc libappindicator liblo liboauth libtermkey libvterm lua-alt-getopt lua-bit32 lua-compat53 lua-filesystem lua-inotify lua-json lua-loop lua-lpeg lua-lunitx lua-moonscript lua-mpack lua-posix lua-readline lua-sql luarocks mcrouter mock-centos-sig-configs musl nickle oflb-smonohand-fonts p7zip portaudio powerline psi-notify python-TestSlide python-atomicwrites python-blessings python-bowler python-click-log python-click-threading python-cmarkgfm python-curtsies python-django-allauth python-django-cache-url python-django-compressor python-django-database-url python-django-email-url python-django-gravatar2 python-django-picklefield python-django-q python-django-redis python-django-search-url python-dkimpy python-fissix python-fixit python-howdoi python-html5lib python-keep python-linecache2 python-lupa python-matplotlib-inline python-moreorless python-nltk python-patatt python-pickleshare python-publicsuffix2 python-pure-eval python-pytest-django python-pytest-runner python-pytest-services python-represent python-requests-download python-sphinx-hoverxref python-sphinx-kr-theme python-sphinx_selective_exclude python-usort python-volatile switchtec trousers tsl-sparse-map ubloxcfg waf xbacklight
saluki     golang-github-bruth-assert golang-github-elithrar-simple-scrypt golang-github-restic-chunker golang-github-vividcortex-mysqlerr golang-github-xlab-handysort
sandeen    e2fsprogs kernel libmodbus
sbluhm     mxparser perl-Mail-RFC822-Address xmlpull xstream
sbose      sssd
scorreia   keylime
scottt     Mars
sdgathman  cjdns dom4j dump1090 marked mp3fs roca-detect thttpd
seanyoung  lirc
sentry     sameboy
sergesanspaille clang13 lld13 llvm11 llvm12 llvm13 xtensor xtensor-python
sergiopr   blt python-pdfrw python-pywt python-sphinx-argparse python-statsmodels xpa
sgallagh   argbash nodejs-packaging python-ModulemdTranslationHelpers python-click-man python-django-pipeline python-flake8 python-memcached python-tqdm python-whoosh
sham1      libdockapp xss-lock
sharkcz    bullet cc65 ddpt devio dmtx-utils firefox libftdi ogdi openhpi openhpi-subagent python-simpleeval pywebdav sigil squirrel uboot-tools unittest-cpp
shlomif    black-hole-solver fortune-mod freecell-solver perl-Dir-Manifest perl-Games-Solitaire-Verify perl-Math-Random-MT perl-Test-Data-Split perl-Test-RunValgrind python-freecell_solver python-pysol-cards rinutils
sic        cantera nexus python-sphinx-bootstrap-theme
sicherha   powerline python-jenkins
siddhesh   gst123 luajit
simo       sssd
siosm      akmods ebook-tools fedora-appstream-metadata
siwinski   ckeditor drupal7 php-Monolog php-PHPParser php-cache-integration-tests php-cache-tag-interop php-doctrine-collections php-doctrine-inflector php-doctrine-lexer php-fedora-autoloader php-guzzlehttp-promises php-masterminds-html5 php-mnapoli-phpunit-easymock php-mtdowling-jmespath-php php-ocramius-code-generator-utils php-psr-cache php-psr-http-message php-psr-link php-psr-simple-cache php-symfony-polyfill php-twig php-webimpress-safe-writer php-webmozart-assert
skitt      gitlint
slaanesh   AMF YafaRay akmods asdcplib bitcoin-core daala dpkg egl-gbm figlet gcab kmodtool libbluray libcaca libibcommon libiec61883 libsecp256k1 libupnp lpf lv2 meanwhile miniupnpc python-pdfrw python-urlgrabber qperf stoken xorg-x11-drv-amdgpu
slankes    detox docbook2X psi sj-fonts xdotool
slp        libkrunfw
smallorange libfprint libusb-compat-0.1 libusb1
smani      GeographicLib alglib apitrace avl commoncpp2 jxrlib leptonica libbatch libgeotiff liblbfgs libwebp mapserver mingw-SDL_image mingw-angleproject mingw-atk mingw-expat mingw-fcgi mingw-fontconfig mingw-glew mingw-goocanvas2 mingw-graphite2 mingw-gtksourceview3 mingw-harfbuzz mingw-libcharset mingw-libepoxy mingw-libgta mingw-libimagequant mingw-libvorbis mingw-libxslt mingw-llvm mingw-python-affine mingw-python-chardet mingw-python-charset-normalizer mingw-python-ephem mingw-python-pyparsing mingw-python-pyproj mingw-python-pytz mingw-python-pyyaml mingw-python-setuptools mingw-python-six mingw-python-tomli mingw-python-urllib3 mingw-qextserialport mingw-qt5-qtscript mingw-spatialindex mingw-speex mingw-spirv-headers mingw-tk mingw-twaindsm omniORB python-ephem python-flask-compress python-flask-gravatar python-flask-login python-flask-paranoid python-flask-principal python-flask-security-too python-httpagentparser python-lunr python-mergedeep python-mongoengine python-pillow python-pyyaml-env-tag python-sane python-user-agents qbs qhexedit2 qt4-style-fusion scotch svg2svgt virtualpg xfoil xrotor
snirkel    rhythmbox
somlo      icestorm iodine nextpnr python-logzero python-migen trellis wmx yosys
souryogurt cgreen
spetros    ansible-collection-microsoft-sql linux-system-roles
spike      apache-commons-math jtidy
spot       QuantLib R-BufferedMatrix R-DBI R-IRanges R-R6 R-RCurl R-RSQLite R-abind R-acepack R-affyio R-cachem R-crayon R-digest R-magrittr R-memoise R-plogr R-praise R-preprocessCore R-prettyunits R-qvalue R-rpm-macros R-rtracklayer R-testthat R-widgetTools allgeyer-fonts avoision c-ares efl egd elementary enlightenment fbg2 ftplib gbdfed giver gxemul irrlicht julius libaesgm libcgi libgdamm libmcrypt libsexy libvidcap libxdiff lincity-ng luabind lzma-sdk457 memchan mono-cecil-flowanalysis mono-reflection opendyslexic-fonts perl-Cairo perl-Geography-Countries perl-Gtk2 perl-Image-Base perl-Image-Size perl-Locale-Maketext-Fuzzy perl-Pango physfs plee-the-bear pyke python-cerealizer python-cson python-oauth2 python-speg radius-engine silkscreen-fonts taglib-sharp tcl-tcludp tcl-tclvfs tcl-tileqt tcl-tkpng tcl-tktreectrl tcl-zlib terminology texlive texlive-base tkimg tlomt-sniglet-fonts udunits2 woodardworks-laconic-fonts xblas xbsql xkeycaps xloadimage xmbdfed xorg-x11-drv-ati
spstarr    rubygem-idn xmlrpc-epi
stefanb    farstream02
stefanha   git-publish
steve      altermime neomutt
steved     kernel libibcommon nfs-utils rpcsvc-proto rusers
stevenfalco kicad
stevetraylen bitmap glog h5py kstart leveldb liblzf log4c log4cpp python-beautifulsoup4 python-collectd_systemd python-django-tastypie python-humanize python-mimeparse python-pyModbusTCP python-setproctitle rubygem-ansi rubygem-curb rubygem-rchardet rubygem-systemu uberftp xcalc xfig
sthiell    clustershell
stingray   flow-tools
stransky   firefox yelp
suanand    php-gettext-gettext python-tinydb
sumantrom  python-pytest-httpx python-pytest-xprocess
supakeen   python-pdir2 python-pygments-better-html
suraia     adobe-source-serif-pro-fonts distro-info distro-info-data dput-ng ibm-plex-fonts python-precis_i18n zsh-autosuggestions zsh-syntax-highlighting
survient   freight
suve       dumb-init gearhead1 gravity-beams-and-evaporating-stars jc lazarus php-phpseclib prettyping python-whois rmlint spectrographic twa
swt2c      CubicSDR python-blinker python-raven
szpak      lpairs pylibacl pyxattr
tachoknight libsqlite3x
tadej      pew python-virtualenv-clone
tagoh      ipa-gothic-fonts ipa-mincho-fonts ipa-pgothic-fonts ipa-pmincho-fonts
tartina    clthreads clxclient dssi guitarix jack-audio-connection-kit jack-keyboard jalv liblo lilv lv2 python-sphinx_lv2_theme serd sndfile-tools sord sratom suil
tchaikov   leveldb python3-saml
tdawson    arpack ddcutil docbook5-style-xsl game-music-emu glew kdsoap kuserfeedback libcerf libgta libpgf libreplaygain lightdm openal-soft plasma-applet-translator python-lockfile python-openid-cla python-versioneer python-wtforms qt6ct rubygem-idn rubygem-launchy rubygem-open4 sassc sj-fonts stoken xsd xsettingsd
tdecacqu   python-sphinx-autodoc-typehints
terjeros   bpython e16 e16-docs e16-epplets e16-keyedit e16-themes editres esound eterm ganglia grace grin h5py jericho-html libast libuninum mathomatic mycli php-pear-Net-IDNA2 pssh python-acoustid python-audioread python-beautifulsoup4 python-cli-helpers python-construct python-curtsies python-cwcwidth python-exif python-hglib python-httpsig-cffi python-terminaltables python-tidy python-unipath sqliteman t1lib
teuf       libcacard libgpod libmusicbrainz5 mingw-libepoxy mingw-libgcrypt mingw-libgpg-error mingw-openssl mingw-spice-gtk mingw-spice-protocol mingw-usbredir phodav rest0.7 spice totem xorg-x11-drv-qxl
tflink     python-flask-sqlalchemy python-wtforms
than       ark gwenview kactivities kapman katomic kblackbox kblocks kbounce kbrickbuster kcolorchooser kde-baseapps kde-i18n kde-l10n kde-runtime kdegames3 kdepimlibs kdialog kdiamond keditbookmarks kf5-baloo kf5-kdelibs4support kf5-kdesignerplugin kf5-kdewebkit kf5-khtml kf5-kjs kf5-libkcddb kfind kfourinline kget kgoldrunner kigo killbots kiriki kjumpingcube klickety klines kmahjongg knavalbattle knetwalk knotes kolf kollision kolourpaint konqueror konquest kontact kpat krdc kreversi kshisen ksirk ksnakeduel kspaceduel ksquares ksudoku kubrick kwebkitpart laughlin-kde-theme leonidas-kde-theme libkcddb libkdegames lovelock-kde-theme lskat migrationtools okteta oxygen-fonts palapeli phonon phonon-backend-gstreamer picmi plasma-workspace qimageblitz qt qt-assistant-adp qt-mobility qt5-qtaccountsservice qt5-qtconfiguration qtchooser qtwebkit sip smokegen solar-kde-theme soprano sparsehash sweeper texlive texlive-base verne-kde-theme
thebeanogamer flite golang-github-bgentry-netrc postfix-mta-sts-resolver python-click-spinner python-pyaes
thl        kcbench
thm        awesome botan geary httperf lmms lua-ldoc lua-lgi lua-lxc lua-markdown lua-penlight lxc pycmd python-apipkg python-execnet python-markdown2 python-py python-regex python-sphinxcontrib-trio python-textile python3-lxc python3-simpletal stk tomboy waf xcb-util-xrm
thofmann   fcl python-rosdep tinyxml
thomas-dickey luit vttest
thozza     libwvstreams wvdial
thrnciar   pypy python-CacheControl python-cleo python-colorzero python-crashtest python-elementpath python-executing python-jaraco-path python-lockfile python-pastel python-pylev python3.9
thunderbirdtr gamescope kasts kongress libphonenumber libyui libyui-gtk libyui-mga libyui-mga-gtk libyui-mga-ncurses libyui-mga-qt maliit-keyboard python-mailmerge python-manatools python-show-in-file-manager python-versioneer python-ytmusicapi qbs tokodon
tieugene   iso-country-flags liblxqt libqtxdg lumina-desktop lxqt-about lxqt-openssh-askpass nomacs python-trml2pdf qvge qxmledit
till       hxtools libHX linux-system-roles reptyr xkbset youtube-dl
timj       altermime bind-to-tinydns
tjikkun    python-raven tcltls tkdnd
tkorbar    guile30 tomsfastmath
tonyskapunk tmate
topazus    docparser prison python-git-changelog
torsava    python3.6 python3.9
tpokorra   dbus-sharp dbus-sharp-glib gio-sharp gkeyfile-sharp gnome-desktop-sharp gnome-keyring-sharp gnome-sharp gtk-sharp-beans gtk-sharp2 gtk-sharp3 gudev-sharp libappindicator libgdiplus libgpod mod_mono mono-addins mono-basic mono-cecil mono-tools mono-zeroconf monodevelop-debugger-gdb mysql-connector-net ndesk-dbus ndesk-dbus-glib newtonsoft-json notify-sharp notify-sharp3 nunit nunit2 pinta restsharp sharpziplib taglib-sharp webkit2-sharp xsp
tpopela    firefox flatpak-rpm-macros
trawets    gconf-editor libbonobo libbonoboui libcmpiutil libgnome libmodman liboil libvirt-java python-cov-core
tredaell   dpdk driverctl
tripledes  elisa-player
trix       golang-github-gin-contrib-cors lensfun opae ptex python-smbprotocol robin-map rocm-compilersupport
tsmetana   pfstools
tstellar   llvm11 rocm-runtime rocminfo
ttomecek   nyancat python-dockerfile-parse python-pytest-cov sen
turboben   pgpdump python-cloudflare python-dns-lexicon
twaugh     osbs-client pyppd python-dockerfile-parse
twoerner   motif
ueno       cocot firefox keylime libfep
umutd3401  python-aenum
uraeus     farstream02 gstreamer1-plugins-bad-free
v02460     golang-github-mattn-pointer
valtri     log4c mingw-c-ares mingw-gsm mingw-log4c mingw-opus rubygem-macaddr rubygem-uuid
van        android-tools python-crcmod
vanessakris python-git-changelog
vascom     diff-pdf eiskaltdcpp elisa-player git-extras gsmartcontrol gtkdatabox jaero libacars libcorrect lv2-mdala-plugins mediaconch mimalloc plasma-applet-translator python-pymediainfo qrencode rtklib srmio svt-vp9 tcl-thread
vda        uClibc
verdurin   guitarix libgnomecanvasmm26 rtorrent samtools
vfedorenko disciplining-minipod ubloxcfg
victortoso grilo-plugins libusb1 mingw-spice-gtk mingw-spice-protocol mingw-usbredir spice xorg-x11-drv-qxl
vkrizan    python-peewee python-wtf-peewee
vmihalko   csmith
vondruch   ruby rubygem-bcrypt rubygem-cookiejar rubygem-curb rubygem-haml rubygem-hashery rubygem-hiredis rubygem-hitimes rubygem-http_parser.rb rubygem-launchy rubygem-marcel rubygem-open4 rubygem-rdoc rubygem-sassc-rails rubygems vim-commentary vim-fugitive
vpodzime   python-ntplib
vstinner   python3.6 python3.9
vtrefny    gsmartcontrol lib765 megaglest-data python-colorlog python-convertdate python-pkgconfig python-rarfile python-xvfbwrapper scrot
walki      primesieve
walters    clojure clutter fsverity-utils git-evtag gnome-desktop-testing
wart       tcl-tclnagios
wef        aml libevdevPlus libuInputPlus swappy wayvnc wl-gammactl wlogout wlr-sunclock wob
whot       xorg-x11-drv-ati
wtaymans   gstreamer-plugins-espeak gstreamer1-doc gstreamer1-plugins-bad-free gstreamer1-rtsp-server gstreamer1-vaapi ladspa pipewire pipewire0.2 python-gstreamer1
wwoods     cowsay-beefymiracle plymouth-theme-hot-dog
wzzrd      libyubikey pam_yubico ykclient ykpers yubikey-personalization-gui
xavierb    alchemyquest drraw foundation-icons-fonts libass libbluray libcaca libclaw libicns libudfread multiwatch nv-codec-headers perl-Encode-HanExtra perl-Image-Base perl-Image-Size perl-Net-UPnP perl-Sentry-Raven perl-Term-ShellUI perl-Tk-TableMatrix perl-WWW-Search php-feedcreator php-pear-Crypt-Blowfish php-pear-Crypt-CHAP python-lockfile xorg-x11-drv-openchrome
xhorak     firefox yelp
xvitaly    iwyu
yangrr     otf2bdf
yanqiyu    checksec ddcutil fcitx-m17n fcitx-qt5 fcitx5 fcitx5-chewing fcitx5-chinese-addons fcitx5-gtk fcitx5-hangul fcitx5-lua fcitx5-m17n fcitx5-mozc fcitx5-qt fcitx5-rime fcitx5-unikey golang-github-chi-cors golang-github-chi-render libime xcb-imdkit
yarek      disciplining-minipod ubloxcfg
ykarel     python-incremental python-treq
yselkowitz flatpak-module-tools flatpak-rpm-macros gnome-panel gstreamer1-plugins-bad-free libart_lgpl libglade2 libgnomecanvas libkcddb mypaint slashem
zawertun   kuserfeedback python-sphinxext-opengraph
zbyszek    mathjax
zsun       golang-github-alecthomas-assert golang-github-alecthomas-colour golang-github-alecthomas-repr golang-github-alecthomas-units golang-github-axgle-mahonia golang-github-cheekybits-is golang-github-disintegration-imaging golang-github-fogleman-gg golang-github-msteinert-pam golang-github-nfnt-resize libdbusextended-qt5 liblxqt libmpris-qt5 libqtxdg
zuul       python-APScheduler python-sphinx-autodoc-typehints
zyga       golang-github-gosexy-gettext golang-github-mvo5-goconfigparser golang-github-snapcore-gettext
zzambers   java-latest-openjdk-portable
