Maintainers by package:
0ad                  kalev pcpa pwalter
0ad-data             bruno kalev pwalter
2048-cli             besser82
3dprinter-udev-rules churchyard
3mux                 eclipseo fab
AMF                  slaanesh
Agda-stdlib          petersen
AllegroOGG           jwrdegoede
ArpON                fab sagarun
CFR                  jvanek
CQRlib               krege
CTML                 dcavalca
CVector              krege
CardManager          jvanek
ClanLib              jwrdegoede
ClanLib06            jwrdegoede
ClanLib1             jwrdegoede
CubicSDR             hobbes1069 swt2c
DevIL                jwrdegoede
FAudio               mooninite
Field3D              hobbes1069
FoXlibf              marcindulak
FreeSOLID            martinkg
GConf2               alexl buc rhughes walters
GLee                 lkundrak
GarminPlugin         besser82
GeographicLib        rmattes smani
GraphicsMagick       ixs rdieter
Hermes               jwrdegoede
IP2Location          pbiering remi
IQmol                jussilehtola
ImageMagick          kalev luya remi sergiomb
MUMPS                sagitter
MagicPoint           jwrdegoede
Mars                 mikep scottt
Mayavi               chedi orion
NLopt                fed500
NearTree             krege
OpenColorIO          hobbes1069
OpenMolcas           jussilehtola
OpenNL               ankursinha
PackageKit-Qt        rdieter rhughes
PyGreSQL             anezbeda fjanus hhorak osloup pkubat praiskup
QsLog                jussilehtola
QuantLib             spot
R-BufferedMatrix     spot
R-DBI                spot
R-DBItest            qulogic
R-IRanges            spot
R-IRdisplay          qulogic
R-IRkernel           qulogic
R-R.cache            qulogic
R-R.devices          qulogic
R-R.methodsS3        qulogic
R-R.oo               qulogic
R-R.rsp              qulogic
R-R6                 spot
R-RCurl              spot
R-RSQLite            spot
R-V8                 qulogic
R-abind              spot
R-acepack            spot
R-affyio             spot
R-argon2             qulogic
R-askpass            qulogic
R-bench              qulogic
R-bindr              qulogic
R-bindrcpp           qulogic
R-brio               qulogic
R-broom              qulogic
R-bslib              qulogic
R-cachem             spot
R-callr              qulogic
R-cellranger         qulogic
R-cli                qulogic
R-cliapp             qulogic
R-clisymbols         qulogic
R-colorspace         qulogic
R-commonmark         qulogic
R-cpp11              qulogic
R-crayon             spot
R-credentials        qulogic
R-crosstalk          qulogic
R-curl               qulogic
R-cyclocomp          qulogic
R-dbplyr             qulogic
R-debugme            qulogic
R-desc               qulogic
R-digest             spot
R-disposables        qulogic
R-downlit            qulogic
R-dplyr              qulogic
R-dtplyr             qulogic
R-errors             iucar
R-evaluate           qulogic
R-farver             qulogic
R-fastmap            qulogic
R-filelock           qulogic
R-foghorn            qulogic
R-fontLiberation     qulogic
R-forcats            qulogic
R-formattable        qulogic
R-gargle             qulogic
R-generics           qulogic
R-gert               qulogic
R-getPass            qulogic
R-ggplot2            qulogic
R-gh                 qulogic
R-gitcreds           qulogic
R-globals            qulogic
R-glue               qulogic
R-gmailr             qulogic
R-haven              qulogic
R-here               qulogic
R-hms                qulogic
R-htmlwidgets        qulogic
R-httr               qulogic
R-hunspell           qulogic
R-import             qulogic
R-isoband            qulogic
R-jose               qulogic
R-jqr                qulogic
R-jquerylib          qulogic
R-jsonlite           qulogic
R-keyring            qulogic
R-labeling           qulogic
R-later              qulogic
R-lintr              qulogic
R-listenv            qulogic
R-magick             qulogic
R-magrittr           spot
R-memoise            spot
R-microbenchmark     qulogic
R-mockery            qulogic
R-munsell            qulogic
R-odbc               qulogic
R-openssl            qulogic
R-oskeyring          qulogic
R-pdftools           qulogic
R-pillar             qulogic
R-pingr              qulogic
R-pkgcache           qulogic
R-pkgconfig          qulogic
R-pkgdown            qulogic
R-plogr              spot
R-plyr               qulogic
R-praise             spot
R-preprocessCore     spot
R-prettycode         qulogic
R-prettyunits        spot
R-processx           qulogic
R-procmaps           qulogic
R-profmem            qulogic
R-progress           qulogic
R-promises           qulogic
R-ps                 qulogic
R-quantities         iucar
R-qvalue             spot
R-ragg               qulogic
R-rappdirs           qulogic
R-rcmdcheck          qulogic
R-readxl             qulogic
R-rematch            qulogic
R-rematch2           qulogic
R-remotes            qulogic
R-reprex             qulogic
R-reshape            qulogic
R-reshape2           qulogic
R-rex                qulogic
R-rhub               qulogic
R-rlang              qulogic
R-roxygen2           qulogic
R-rpm-macros         qulogic spot
R-rprintf            qulogic
R-rprojroot          qulogic
R-rstudioapi         qulogic
R-rsvg               qulogic
R-rtracklayer        spot
R-rversions          qulogic
R-rvest              qulogic
R-sass               qulogic
R-scales             qulogic
R-selectr            qulogic
R-shiny              qulogic
R-sodium             qulogic
R-sourcetools        qulogic
R-spelling           qulogic
R-stringi            qulogic
R-stringr            qulogic
R-sys                qulogic
R-systemfonts        qulogic
R-testthat           spot
R-textshaping        qulogic
R-tibble             qulogic
R-tidyr              qulogic
R-tidyselect         qulogic
R-tinytex            qulogic
R-tweenr             qulogic
R-unix               qulogic
R-usethis            qulogic
R-uuid               qulogic
R-vctrs              qulogic
R-viridisLite        qulogic
R-waldo              qulogic
R-waveslim           jamatos
R-webfakes           qulogic
R-webp               qulogic
R-webutils           qulogic
R-wesanderson        qulogic
R-whoami             qulogic
R-widgetTools        spot
R-withr              qulogic
R-xfun               qulogic
R-xmlparsedata       qulogic
R-xopen              qulogic
R-yaml               qulogic
R-zeallot            qulogic
R-zip                qulogic
Random123            ankursinha
SAASound             jwrdegoede
SDL2_image           fcami ngompa pwalter
SDL2_net             ignatenkobrain jonathanspw ngompa pwalter
SDL_mng              dulsi
SDL_sound            jonathanspw jwrdegoede robert
SFCGAL               italomga orange-kao pwouters rineau rominf rommell
SILLY                jwrdegoede
SOIL                 belegdol
Simple-Fuzzer        aconole
SkyX                 rmattes
TurboGears2          cverna ondrejj
YafaRay              luya slaanesh
abduco               dfateyev linkdupont
academic-admin       mikep
accerciser           kalev
act                  churchyard
adime                jwrdegoede
admeshgui            churchyard
adobe-source-serif-pro-fonts suraia
aeskeyfind           rebus
afflib               kwizart rebus
aftertheflood-sparks-fonts eclipseo
agedu                jussilehtola
ags                  rathann
ahven                rombobeorn
airspyone_host       jskarvad
aisleriot            mclasen rstrode
akmods               kwizart leigh123linux nvieville siosm slaanesh
akonadi-calendar-tools rdieter
alchemyquest         dulsi xavierb
alef-fonts           aekoroglu
alfont               jwrdegoede
alglib               smani
allegro5             jwrdegoede
allgeyer-fonts       spot
altermime            jorti steve timj
am-utils             iankent
amavis               jorti steve
aml                  ngompa wef
ampy                 churchyard
anagramarama         dulsi
android-tools        van
angband              dherrera
angelscript          pwalter
anka-coder-fonts     ankursinha
ansible-bender       gordonmessmer
ansible-collection-kubernetes-core gotmax23 kevin
ansible-collection-microsoft-sql rmeggins spetros
antlrworks           melmorabity
apa-new-athena-unicode-fonts ankursinha
apache-commons-math  melmorabity spike
apanov-heuristica-fonts aekoroglu
apitrace             smani
apptainer            dwd
apx                  raphgro
aqsis                kwizart pmachata
aquatone             fab
archivemount         devos
argbash              sgallagh
args4j               mbooth mizdebsk
argtable             nonamedotc pwouters
aria2                neil
ark                  rdieter than
arm-none-eabi-binutils-cs mhlavink
arpack               besser82 imcinerney jussilehtola tdawson
arprec               besser82
asahi-scripts        dcavalca ngompa salimma
asdcplib             aekoroglu kwizart slaanesh
asnip                fab
aspell-en            jchaloup ljavorsk nforro
aspell-pl            jchaloup ljavorsk nforro
aspell-ru            jchaloup ljavorsk nforro
aspell-sk            ondrejj
assetfinder          fab
assimp               cottsay rmattes
ast                  orion
asterisk-sounds-core jsmith
atf                  sergiomb
atkmm2.36            kalev
atril                raveit65 robert
attica               rdieter
audacious            danfruehauf mschwendt robert
audacious-plugins    danfruehauf mschwendt robert
audiocd-kio          rdieter than
auditwheel           churchyard
automoc              rdieter
autossh              abo fale
autowrap             sagitter
avl                  smani
avogadro2            sagitter
avogadro2-libs       sagitter
avoision             spot
awesome              thm
awesome-vim-colorschemes atim
ax25-apps            hobbes1069
badchars             fab
badvpn               pwalter
badwolf              lyessaadi
ballz                bruno jwrdegoede
bam                  lkundrak
bash-argsparse       jonathanspw
bats                 harrymichal mikelo2
battray              aarem
bbkeys               filiperosset
bcd                  kwizart
beaker               martstyk
beansbinding         omajid
beanstalkd           gnat
bear-factory         martinkg
beets                maha mbaldessari
bgpq3                benniej
bind-to-tinydns      timj
bio2jack             dtimms
bitcoin-core         slaanesh
bitlbee              robert
bitmap               stevetraylen
bitstream            kwizart
black-hole-solver    shlomif
blackbox             cicku filiperosset
blaze                diehlpk
blobwars             bruno
blogilo              kkofler
blt                  krege sergiopr
bltk                 jskarvad
bluebird             kevin maxamillion
boinc-client         germano
boomaga              martinkg
botan                thm
bouncycastle         ellert gil mbooth
bpython              maxamillion salimma terjeros
brightnessctl        fale ngompa pjgeorg
bsd-games            jmakey sergiomb
bsdiff               jnovy salimma
bspwm                pidgornyy
bst-external         atim
btrfs-fuse           dcavalca salimma
btrfs-heatmap        jorti
budgie-control-center joshstrobl
bugzilla             astra eseyman
build-constraints-rpm-macros salimma
bullet               rmattes sharkcz
bumpversion          dcavalca fedepell jonathanspw
bwidget              krege
bwping               alciregi
bwrap-oci            gscrivano
byteman              jerboaa jhuttana
bzflag               jmakey
c++-gtk-utils        airwave echevemaster
c-ares               spot
caja                 raveit65 robert
caja-actions         raveit65 robert
calligraplan         rdieter
can-utils            jkastner linville pbrobinson pmatilai
cantera              fuller sic
capnproto            ngompa
capstats             fab
caribou              leigh123linux
cataclysm-dda        dulsi
catalyst             orion
catimg               keesdejong
cava                 larsks
cbios                jwrdegoede
cc1541               besser82
cc65                 besser82 sharkcz
ccrtp                ixs smani
cdk                  cicku fale
cdlabelgen           rathann
cdogs-sdl            jwrdegoede
cdparanoia           ajax pjones
cegui06              bruno jwrdegoede
cekit                goldmann rnc
celt051              alexl
ceph                 branto kkeithle ktdreyer
cgreen               souryogurt
charliecloud         jogas
check_postgres       devrim
checksec             yanqiyu
chicken              sham1
chisel               fab
chisholm-letterslaughing-fonts ankursinha
chisholm-to-be-continued-fonts aekoroglu
cinnamon             leigh123linux
cinnamon-control-center leigh123linux
cinnamon-desktop     leigh123linux
cinnamon-menus       leigh123linux
cinnamon-screensaver leigh123linux
cinnamon-session     leigh123linux
cinnamon-settings-daemon leigh123linux
cjdns                sdgathman
cjs                  leigh123linux
ckeditor             siwinski
clamsmtp             gnat
clang13              petersen sergesanspaille
classified-ads       costello
clatd                ingvar
clearlooks-compact-gnome-theme lkundrak
clementine           eclipseo
clitest              jonny
clojure              korkeala kushal walters
clojure-core-specs-alpha korkeala
clojure-maven-plugin korkeala
clojure-spec-alpha   korkeala
clthreads            tartina
clucene              rdieter
clustershell         sthiell
clutter              fmuellner kalev walters
clutter-gst3         amigadave
clutter-gtk          kalev
cluttermm            rishi
clxclient            tartina
cm_rgb               ausil
cminpack             rmattes
cmrt                 dcavalca kwizart
coan                 ajax filiperosset
cocot                ueno
code2html            moceap
codespell            mikelo2 rishi
cogl                 fmuellner kalev
coin-or-DyLP         sagitter
coin-or-Ipopt        sagitter
coin-or-Vol          sagitter
coldet               jwrdegoede
colm                 filiperosset jtaylor
colorized-logs       kilobyte
combblas             sagitter
comic-neue-fonts     kvolny
commit-stream        fab
common-lisp-controller green
commoncpp2           smani
compat-flex          pmachata
compat-lua           jwrdegoede moceap remi salimma
compat-tolua++       jwrdegoede
compiz               jskarvad raveit65
compiz-plugins-extra jskarvad
compizconfig-python  jskarvad
comps-extras         ngompa
conakry-fonts        ankursinha
console-image-viewer jvanek
corectrl             atim
corsix-th            atim
cortado              jwrdegoede
cowpatty             sagarun
cowsay-beefymiracle  ndim wwoods
cpdup                salimma
cpp-httplib          orion pemensik
cppcodec             aekoroglu
cpphs                petersen
cpprest              c72578
cpptest              fcami
cpputest             salimma
cppzmq               qulogic
crossguid            melmorabity
crossguid2           sagitter
crrcsim-addon-models dwrobel
csmith               vmihalko
cstream              ndim
ctan-cm-lgc-fonts    aekoroglu
ctan-kerkis-fonts    aekoroglu
cubeb                mystro256
curlpp               filiperosset
cvise                mpolacek
cwm                  bmeneguele
cxxtools             martinkg
d-din-fonts          ngompa
d0_blind_id          pwalter
dSFMT                laxathom nalimilan
daala                kwizart slaanesh
daemonize            slankes
daggy                atim ignatenkobrain
dahdi-tools          bruno jsmith
dapl                 honli
daq                  marcindulak
darkhttpd            cicku filiperosset
darkman              linkdupont
dbus-c++             drago01
dbus-sharp           alexl rhughes rstrode tpokorra
dbus-sharp-glib      tpokorra
dcfldd               rebus
dcm2niix             ankursinha ignatenkobrain
dcmtk                ankursinha ignatenkobrain
ddcutil              tdawson yanqiyu
ddnet                rffontenelle sergiomb
ddpt                 sharkcz
ddupdate             leamas
debconf              sergiomb
debootstrap          lkundrak sergiomb
decentxml            mbooth mizdebsk
dehydrated           pwouters robert
deletemail           fab
deluge               mooninite
desktop-backgrounds  alexl dchen luya q5sys rhughes rstrode
detox                filiperosset slankes
dev86                jnovy lkundrak
device-mapper-multipath agk bmarzins cfeist kzak lvm-team mbroz mcsontos prajnoha
devio                sharkcz
dhcpd-pools          cmadams
dhcping              fab
dicomanonymizer      alciregi
diff-pdf             vascom
dionaea              rebus
direnv               logic
dirgra               didiksupriadi41
disciplining-minipod abulimov dcavalca leoleovich pcullen pmazzini salimma vfedorenko yarek
discount             greghellings
disk-utilities       dcavalca
diskscan             rathann
dispenso             salimma
distro-info          suraia
distro-info-data     suraia
dmenu                cicku mathstuf mrc0mmand psabata
dmg2img              peter
dmtx-utils           sharkcz
dnf-plugin-cow       dcavalca malmond salimma
dnscrypt-proxy       dcavalca eclipseo
dnsgen               fab
dnssec-tools         mspacek
dnstracer            jonathanspw
dnsx                 mikelo2
docbook-simple       anezbeda ovasik
docbook-slides       anezbeda ovasik
docbook2X            slankes
docbook5-style-xsl   anezbeda osloup ovasik tdawson
doclifter            defolos
docopt-cpp           pemensik
docparser            cheeselee topazus
doge                 churchyard
doh                  carlwgeorge
dolphin-connector    poetinha
dolphin-emu          mystro256
dom4j                jwrdegoede mizdebsk sdgathman
domoticz             mooninite
douceur              athoscr
dpdk                 aconole linville tredaell
dpkg                 cheeselee sergiomb
dput-ng              suraia
dreamchess           raphgro
drehatlas-widelands-fonts jwrdegoede
drgeo-doc            brouhaha
driverctl            fbl tredaell
dropbear             cicku fedepell
dropbox-api-command  mathstuf
drpm                 jmracek mcbeeffx
drraw                xavierb
drupal7              jsmith pfrields siwinski
dssi                 tartina
dt                   agk mbroz okozina
dub                  dcavalca
duel3                jwrdegoede
duff                 echevemaster
dumb                 jwrdegoede
dumb-init            suve
dump1090             sdgathman
dvblinkremote        melmorabity
dvtm                 maxamillion psabata
dxf2gcode            dwrobel
dxpc                 ajax
dxvk-native          ngompa
dynaconf             dmsimard
dynamite             jwrdegoede
e16                  terjeros
e16-docs             terjeros
e16-epplets          terjeros
e16-keyedit          terjeros
e16-themes           terjeros
e2fsprogs            josef kasal kzak preichl sandeen
ebook-tools          rdieter siosm
ebtree               ingvar
ec2-metadata         manpaz
echo-icon-theme      alexl luya rhughes rstrode
ecj                  abbra
eclipse-swt          deamn
edgar                musuruan
editres              terjeros
efl                  dchen spot
efont-unicode-bdf    mtasaka
egd                  spot
egl-gbm              ework ngompa slaanesh
eiskaltdcpp          vascom
ektype-mukta-fonts   vishalvvr
electron-cash        jonny peter
electrum             js
elementary           konradm orphan spot
elements             aalvarez
elements-alexandria  aalvarez
elfio                ignatenkobrain orion
elisa-player         tripledes vascom
emacs-irsim-mode     sagarun
emacs-json-reformat  melmorabity
enblend              bpostle
enchant              limb
endless-sky          linkdupont
endlessh             mikelo2
enet                 bruno fcami jwrdegoede
engrampa             raveit65 robert
enlightenment        cicku dchen spot
entypo-fonts         leamas
enum                 kdudka ovasik
envytools            jwrdegoede lyude
eom                  raveit65 robert
ephemeral-port-reserve cstratak
erlang-base64url     bowlofeggs peter
erlang-bbmustache    peter
erlang-chronos       peter
erlang-cl            peter
erlang-cowboy        peter
erlang-eflame        peter
erlang-egeoip        peter
erlang-eradius       bowlofeggs peter
erlang-erlsyslog     peter
erlang-erlware_commons peter
erlang-erlydtl       peter
erlang-esasl         peter
erlang-fuse          peter
erlang-gettext       peter
erlang-goldrush      bowlofeggs jcline peter
erlang-gtknode       peter
erlang-hyper         peter
erlang-idna          bowlofeggs peter
erlang-jiffy         bowlofeggs lkundrak peter
erlang-jose          jcline peter
erlang-jsx           peter
erlang-kvc           peter
erlang-mochiweb      peter
erlang-mustache      peter
erlang-neotoma       peter
erlang-oauth         peter
erlang-oauth2        bowlofeggs jcline peter
erlang-p1_oauth2     bowlofeggs jcline peter
erlang-ranch         peter
erlang-rebar         jeckersb peter
erlang-rpm-macros    jeckersb peter
erlang-sd_notify     jeckersb peter
erlang-ssl_verify_fun peter
esh                  churchyard
esound               robert terjeros
eterm                terjeros
eventlog             czanik mrunge
exercism             qulogic
exo                  kevin nonamedotc
exodusii             junghans
expatpp              peter
extra-cmake-modules  cicku lkundrak rdieter
ezstream             ppisar
f27-backgrounds      dreua luya
f28-backgrounds      dreua luya
fakechroot           cicku corsepiu sergiomb
fakeroot             lkundrak moceap sergiomb
falkon               kkofler
farstream02          stefanb uraeus
fastbit              pkfed
fastlz               remi
fatcat               dcavalca
fbg2                 spot
fcgi                 kni
fcgiwrap             kni
fcitx-m17n           cheeselee yanqiyu
fcitx-qt5            cheeselee yanqiyu
fcitx5               yanqiyu
fcitx5-chewing       yanqiyu
fcitx5-chinese-addons yanqiyu
fcitx5-gtk           yanqiyu
fcitx5-hangul        yanqiyu
fcitx5-lua           yanqiyu
fcitx5-m17n          yanqiyu
fcitx5-mozc          music yanqiyu
fcitx5-qt            yanqiyu
fcitx5-rime          yanqiyu
fcitx5-unikey        yanqiyu
fcl                  rmattes thofmann
fedora-appstream-metadata siosm
fedora-flathub-remote otaylor
fedora-gnat-project-common rombobeorn
fedora-jam-kde-theme q5sys
fedora-third-party   otaylor
fedora-workstation-repositories mclasen
fedorainfinity-backgrounds besser82
feh                  fale mathstuf
fennel               salimma
ffuf                 fab
fgrun                bellet
fido                 besser82 cdamian
figlet               slaanesh
figtoipe             cicku
firefox              alexl erack gecko-maint jgrulich kalev kengert rhughes rstrode sharkcz stransky tpopela ueno xhorak
firewalk             huzaifas
fishbowl             didiksupriadi41
five-or-more         kalev
fixedptc             dwrobel
flamerobin           makowski
flann                rmattes
flat-remix-icon-theme atim
flatpak-module-tools kalev otaylor
flatpak-rpm-macros   amigadave otaylor tpopela
flite                peter rathann thebeanogamer
flopgen              dcavalca
floppy-support       bruno
florence             cicku kevin
flow-tools           orion stingray
fluid                lkundrak plfiorini
fluxbox              dchen
flwkey               hobbes1069
flyingsaucersattack  jwrdegoede
fmit                 dwrobel
folly-rpm-macros     salimma
fontawesome-fonts    dcavalca fale jjames mrunge pvoborni
fontsquirrel-crete-round-fonts rathann
fortune-mod          sergiomb shlomif
fossil               defolos ivzhh
foundation-icons-fonts xavierb
fpart                carlwgeorge survient
freealut             jwrdegoede pwalter
freecell-solver      shlomif
freecolor            dfateyev
freeimage            bruno cicku hobbes1069 smani
freeradius-client    peter
freight              evgeni survient
frescobaldi          limb
fsverity-utils       walters
ftnchek              orion
ftplib               spot
funguloids           jwrdegoede
fuse-pingfs          mikelo2
fuzza                fab
fuzzel               alebastr atim
fwts                 benzea
fzf                  qulogic
ga                   marcindulak
gabedit              mtasaka rathann
gambit-c             fed500
game-music-emu       kvolny tdawson
gamescope            farchord frantisekz ngompa thunderbirdtr
gammastep            alebastr
ganglia              terjeros
garcon               kevin nonamedotc orion
gau2grid             jussilehtola
gazebo               rmattes
gbdfed               spot
gc                   pcpa praiskup rdieter
gcab                 elmarco slaanesh
gcin                 cheeselee cicku zsun
gcompris-qt          musuruan
gconf-editor         alexl rhughes rstrode trawets
gdb                  ahajkova gwenthekween jankratochvil keiths kevinb mkolar
gdlmm                dodji kalev
geany                dmaphy josef pingou
geany-themes         dmaphy
gearbox              rmattes
gearhead1            suve
gears-backgrounds    q5sys
geary                salimma thm
gecode               jdunn
gedit                alexl rhughes rstrode yselkowitz
gedit-plugin-editorconfig ferdnyc
generic-logos        ngompa
genesis-simulator    ankursinha
geomview             rdieter
gflags               sergiomb
ggz-base-libs        pwalter rdieter
ghasher              filiperosset
ghc-base-compat      mathstuf petersen
ghc-base-compat-batteries petersen
ghc-base-orphans     qulogic
ghc-base-prelude     qulogic
ghc-bower-json       petersen
ghc-call-stack       petersen
ghc-conduit          petersen
ghc-conduit-extra    petersen
ghc-cookie           petersen
ghc-doctest          qulogic
ghc-hoauth2          petersen
ghc-hslua-module-text petersen
ghc-hspec            dshea petersen
ghc-hspec-core       dshea petersen
ghc-hspec-discover   dshea petersen
ghc-http-client-openssl petersen
ghc-http-client-restricted qulogic
ghc-http-client-tls  qulogic
ghc-lens-aeson       dshea
ghc-monad-logger     petersen
ghc-polyparse        petersen
ghc-protolude        petersen
ghc-relude           petersen
ghc-repline          petersen
ghc-rio              petersen
ghc-shakespeare      petersen
ghc-streaming-commons petersen
ghc-th-abstraction   qulogic
ghc-typed-process    petersen
ghc-unliftio         petersen
ghc-vector-builder   qulogic
ghc-wai-app-static   qulogic
ghc-warp-tls         qulogic
ghc-yesod            petersen
ghc-yesod-core       petersen
ghc-yesod-form       petersen
ghc-yesod-persistent petersen
ghdl                 sailer
gif2png              jonathanspw
gio-sharp            tpokorra
git-archive-all      hobbes1069
git-evtag            ignatenkobrain walters
git-extras           besser82 sergiomb vascom
git-publish          stefanha
git-secret           gombosg
git-time-metric      qulogic
git-up               ekohl
gitjacker            fab
gitlint              skitt
giver                spot
gkeyfile-sharp       tpokorra
glade                kalev
glew                 ajax jexposit orion tdawson
glide                jchaloup
glm                  muep orion
global               cheeselee landgraf
glog                 jonathanspw stevetraylen
glues                raphgro
glyph-keeper         jwrdegoede
glyphicons-halflings-fonts kni
gmailctl             fuller
gmime                alexl pwalter rhughes rstrode
gmm                  rdieter
gnat-srpm-macros     landgraf rombobeorn
gnome-bluetooth3.34  limb
gnome-builder        amigadave ignatenkobrain
gnome-desktop-sharp  laxathom tpokorra
gnome-desktop-testing mclasen walters
gnome-dictionary     mclasen
gnome-hexgl          alexl atim
gnome-js-common      salimma
gnome-keyring-sharp  salimma tpokorra
gnome-klotski        kalev
gnome-music          kalev
gnome-nettool        alexl kalev rhughes rstrode
gnome-panel          atim yselkowitz
gnome-robots         kalev
gnome-sharp          laxathom rhughes rstrode tpokorra
gnome-shell-theme-flat-remix atim
gnome-subtitles      belegdol
gnome-system-log     mclasen rstrode
gnome-tetravex       kalev
gnome-themes-extra   pwalter
gnulib               moceap
gnumeric             alexpl huzaifas
gnuplot              jkucera pcahyna
go-bindata           eclipseo jchaloup
go2rpm               alexsaezm eclipseo gotmax23 mikelo2
goaltdns             fab
goddard-backgrounds  q5sys
godot                akien
godotenv             athoscr
gojq                 mikelo2
golang-bazil-fuse    jchaloup mikelo2
golang-bitbucket-ww-goautoneg jchaloup mikelo2
golang-etcd-bbolt    mikelo2
golang-github-a8m-tree jchaloup mikelo2
golang-github-aalpar-deheap mikelo2
golang-github-aaronjanse-pty fab
golang-github-acarl005-stripansi fab
golang-github-aclements-gg alexsaezm jchaloup
golang-github-aclements-moremath eclipseo jchaloup
golang-github-acme-lego eclipseo
golang-github-acobaugh-osrelease harrymichal
golang-github-adrg-xdg linkdupont
golang-github-adrianmo-nmea fab
golang-github-aead-chacha20 eclipseo jchaloup
golang-github-aead-poly1305 eclipseo jchaloup
golang-github-afex-hystrix alexsaezm
golang-github-akamensky-argparse fab
golang-github-akavel-rsrc eclipseo
golang-github-alecaivazis-survey-2 mikelo2
golang-github-alecthomas-assert felixonmars qulogic zsun
golang-github-alecthomas-chroma athoscr
golang-github-alecthomas-colour felixonmars qulogic zsun
golang-github-alecthomas-kong qulogic
golang-github-alecthomas-kong-hcl mikelo2
golang-github-alecthomas-repr felixonmars qulogic zsun
golang-github-alecthomas-units felixonmars zsun
golang-github-alexflint-filemutex mikelo2
golang-github-aliyun-oss-sdk bdperkin eclipseo
golang-github-aliyun-ossutil bdperkin
golang-github-alyu-configparser bdperkin
golang-github-andrew-d-termutil fab
golang-github-andreyvit-diff gotmax23
golang-github-andybalholm-brotli alexsaezm
golang-github-andybalholm-cascadia athoscr
golang-github-anmitsu-shlex jchaloup mikelo2
golang-github-antchfx-htmlquery eclipseo
golang-github-antchfx-jsonquery fab
golang-github-antchfx-xmlquery mikelo2
golang-github-antchfx-xpath fab
golang-github-antihax-optional mikelo2
golang-github-apex-logs mikep
golang-github-armon-circbuf jchaloup mikelo2
golang-github-armon-gomdb eclipseo jchaloup
golang-github-armon-metrics mikelo2
golang-github-armon-radix alexsaezm
golang-github-armon-socks5 mikelo2
golang-github-artyom-mtab mikelo2
golang-github-aryann-difflib fab
golang-github-asaskevich-eventbus fab
golang-github-asaskevich-govalidator logic
golang-github-aws-lambda mikelo2
golang-github-axgle-mahonia zsun
golang-github-aykevl-wasm qulogic
golang-github-azure-amqp mikep
golang-github-azure-amqp-common mikep
golang-github-azure-ntlmssp fab
golang-github-azure-pipeline mikelo2
golang-github-azure-sdk jcline mhayden
golang-github-azure-service-bus mikep
golang-github-azure-storage-blob mikelo2
golang-github-badoux-checkmail qulogic
golang-github-beevik-ntp fuller
golang-github-benbjohnson-clock agerstmayr nathans
golang-github-beorn7-perks jchaloup mikelo2
golang-github-bep-debounce qulogic
golang-github-bep-gitmap athoscr fale
golang-github-bep-goat mikep
golang-github-bep-godartsass mikep
golang-github-bep-golibsass qulogic
golang-github-bep-overlayfs mikep
golang-github-bep-tmc qulogic
golang-github-bep-workers mikep
golang-github-bettercap-gatt fab
golang-github-bettercap-readline fab
golang-github-bgentry-netrc thebeanogamer
golang-github-bgentry-speakeasy alexsaezm jchaloup
golang-github-bifurcation-mint eclipseo
golang-github-bitly-simplejson jchaloup mikelo2
golang-github-bits-and-blooms-bitset dcavalca
golang-github-blakesmith-ar qulogic
golang-github-blang-semver mikelo2
golang-github-bmatcuk-doublestar-3 eclipseo
golang-github-bmizerany-assert jchaloup mikelo2
golang-github-bobesa-domain-util fab
golang-github-boombuler-barcode logic
golang-github-bradenhilton-cityhash qulogic
golang-github-bradfitz-iter eclipseo
golang-github-bruth-assert saluki
golang-github-bshuster-repo-logrus-logstash-hook mikelo2
golang-github-bsphere-le alexsaezm
golang-github-buengese-sgzip mikelo2
golang-github-bugsnag alexsaezm
golang-github-bugsnag-panicwrap alexsaezm jchaloup
golang-github-burntsushi-graphics eclipseo
golang-github-burntsushi-locker qulogic
golang-github-burntsushi-toml dfateyev mikelo2
golang-github-burntsushi-toml-test mikelo2
golang-github-burntsushi-xgb eclipseo
golang-github-c-bata-prompt eclipseo
golang-github-cactus-statsd-client alexsaezm
golang-github-calebcase-tmpfile mikelo2
golang-github-caspr-io-yamlpath fale
golang-github-cenkalti-backoff fab jchaloup
golang-github-cention-sany-utf7 eclipseo
golang-github-cespare-xxhash fab
golang-github-chai2010-gettext eclipseo
golang-github-chappjc-logrus-prefix dcavalca
golang-github-charmbracelet-glamour mikelo2
golang-github-charmbracelet-lipgloss mikelo2
golang-github-cheekybits-is zsun
golang-github-chi    mikelo2
golang-github-chi-cors yanqiyu
golang-github-chi-render yanqiyu
golang-github-chris-ramon-douceur eclipseo
golang-github-christrenkamp-goxpath fab
golang-github-chromedp fab
golang-github-chromedp-cdproto fab
golang-github-chromedp-sysutil eclipseo
golang-github-chzyer-test jchaloup mikelo2
golang-github-cilium-ebpf alexsaezm
golang-github-circonus-labs-apiclient mikelo2
golang-github-circonus-labs-circonusllhist mikelo2
golang-github-circonus-labs-gometrics mikelo2
golang-github-clbanning-mxj mikelo2
golang-github-clbanning-x2j mikelo2
golang-github-cli-gh mikelo2
golang-github-cli-oauth mikelo2
golang-github-cli-shurcool-graphql jdoss
golang-github-clickhouse dcavalca
golang-github-client9-plaintext eclipseo
golang-github-cmd    eclipseo
golang-github-cnf-structhash mikelo2
golang-github-cockroachdb-pebble eclipseo
golang-github-cockroachdb-sentry alexsaezm
golang-github-codegangsta-inject mikelo2
golang-github-colinmarc-hdfs-2 mikelo2
golang-github-common-nighthawk-figure fab
golang-github-coreos-ioprogress eclipseo
golang-github-corpix-uarand mikelo2
golang-github-cosiner-argv qulogic
golang-github-cpu-goacmedns eclipseo
golang-github-cpuguy83-md2man dfateyev mikelo2
golang-github-creack-goselect qulogic
golang-github-creack-pty alexsaezm
golang-github-crossdock mikelo2
golang-github-cucumber-gherkin eclipseo
golang-github-cucumber-godog eclipseo
golang-github-cucumber-messages eclipseo
golang-github-cupcake-rdb eclipseo
golang-github-cyberdelia-metrics-graphite fale
golang-github-d2g-dhcp4 alexsaezm
golang-github-d5-tengo-2 fab
golang-github-daaku-zipexe eclipseo
golang-github-danwakefield-fnmatch athoscr
golang-github-data-dog-sqlmock dcavalca
golang-github-datadog alexsaezm
golang-github-datadog-golz4 dcavalca
golang-github-dave-jennifer gotmax23
golang-github-davecgh-spew mikelo2
golang-github-davecgh-xdr eclipseo
golang-github-daviddengcn-colortext eclipseo
golang-github-dchest-safefile eclipseo jchaloup
golang-github-deckarep-set alexsaezm
golang-github-delve-liner alexsaezm fuller
golang-github-denisbrodbeck-machineid dcavalca
golang-github-denisenkom-mssqldb mikelo2
golang-github-dennwc-varint alexsaezm
golang-github-derekparker-trie fuller
golang-github-devigned-tab mikep
golang-github-dghubble-oauth1 fab
golang-github-dghubble-sling fab
golang-github-dghubble-twitter fab
golang-github-dgrijalva-jwt alexsaezm
golang-github-direnv-dotenv logic
golang-github-disintegration-gift mikep
golang-github-disintegration-imaging felixonmars zsun
golang-github-djherbis-atime qulogic
golang-github-djherbis-buffer eclipseo
golang-github-djherbis-nio eclipseo
golang-github-djherbis-times jchaloup mikelo2
golang-github-dlclark-regexp2 athoscr
golang-github-dnaeon-vcr alexsaezm jchaloup
golang-github-dnsimple eclipseo
golang-github-docker-credential-helpers alexsaezm
golang-github-docker-go mikelo2
golang-github-docker-slim-uilive eclipseo
golang-github-docker-slim-uiprogress eclipseo
golang-github-docker-slim-update eclipseo
golang-github-docopt mikelo2
golang-github-dop251-scsu mikelo2
golang-github-dpotapov-spnego qulogic
golang-github-dropbox-sdk-unofficial jchaloup mikelo2
golang-github-droundy-goopt bdperkin
golang-github-dsnet-golib rathann
golang-github-dustin-humanize mikelo2
golang-github-dvsekhvalnov-jose2go jchaloup mikelo2
golang-github-eapache-queue mikelo2
golang-github-eapache-resiliency mikelo2
golang-github-eapache-xerial-snappy mikelo2
golang-github-eclesh-welford abulimov dcavalca
golang-github-eclipse-paho-mqtt linkdupont
golang-github-edsrzf-mmap alexsaezm
golang-github-eknkc-amber athoscr
golang-github-elazarl-bindata-assetfs eclipseo
golang-github-elithrar-simple-scrypt saluki
golang-github-ema-qdisc fuller
golang-github-emersion-imap eclipseo
golang-github-emersion-imap-sortthread eclipseo
golang-github-emersion-maildir eclipseo
golang-github-emersion-message eclipseo
golang-github-emersion-pgpmail eclipseo
golang-github-emersion-sasl eclipseo
golang-github-emersion-smtp eclipseo
golang-github-emersion-textwrapper eclipseo
golang-github-emicklei-restful alexsaezm
golang-github-emirpasic-gods rathann
golang-github-erikstmartin-testdb mikelo2
golang-github-errors alexsaezm
golang-github-evanw-esbuild mikep
golang-github-evanw-esbuild-0.8.20 mikep
golang-github-exponent-io-jsonpath eclipseo
golang-github-facebookgo-clock eclipseo
golang-github-facebookgo-subset dcavalca
golang-github-facebookincubator-contest dcavalca
golang-github-facebookincubator-dhcplb dcavalca
golang-github-fanliao-promise dcavalca
golang-github-fatih-camelcase eclipseo
golang-github-fatih-color mrunge
golang-github-fatih-structs logic
golang-github-fd0-termstatus fab
golang-github-felixge-httpsnoop mikelo2
golang-github-fernet alexsaezm
golang-github-flynn-json5 eclipseo jchaloup
golang-github-flynn-noise fale
golang-github-fogleman-gg cheeselee zsun
golang-github-form3tech-oss-jwt alexsaezm
golang-github-fortytw2-leaktest athoscr
golang-github-francoispqt-gojay mikelo2
golang-github-franela-goblin mikelo2
golang-github-franela-goreq mikelo2
golang-github-frankban-quicktest alexsaezm
golang-github-fsouza-dockerclient eclipseo
golang-github-fvbommel-sortorder orphan
golang-github-fvbommel-util eclipseo
golang-github-gabriel-vasile-mimetype mikelo2
golang-github-geertjohan-incremental eclipseo
golang-github-gehirninc-crypt bdperkin
golang-github-genuinetools-pkg eclipseo
golang-github-getkin-kin-openapi bdperkin mikep
golang-github-ghodss-yaml jchaloup mikelo2
golang-github-gin-contrib-cors fab trix
golang-github-gin-contrib-sse mikelo2
golang-github-gin-gonic alexsaezm
golang-github-git-gcfg mikelo2
golang-github-git-lfs-gitobj-2 qulogic
golang-github-git-lfs-netrc qulogic
golang-github-git-lfs-pktline qulogic
golang-github-git-lfs-wildmatch-2 qulogic
golang-github-glendc-gopher-json eclipseo
golang-github-globalsign-mgo alexsaezm jchaloup
golang-github-gobuffalo-envy athoscr
golang-github-gobuffalo-flect qulogic
golang-github-gobuffalo-here eclipseo
golang-github-gobuffalo-logger mikelo2
golang-github-gobuffalo-packd mikelo2
golang-github-gobuffalo-packr mikelo2
golang-github-gobwas-glob athoscr
golang-github-gobwas-httphead fab
golang-github-gobwas-pool fab
golang-github-gobwas-ws fab
golang-github-goccy-json eclipseo
golang-github-gocql  mikelo2
golang-github-gofrs-uuid alexsaezm
golang-github-gogs-chardet eclipseo
golang-github-gohugoio-locales mikep
golang-github-gohugoio-localescompressed mikep
golang-github-gohugoio-testmodbuilder qulogic
golang-github-gojuno-minimock dcavalca
golang-github-gokyle-twofactor fale
golang-github-golangci-lint-1 obudai
golang-github-golangplus-bytes qulogic
golang-github-golangplus-fmt qulogic
golang-github-golangplus-testing qulogic
golang-github-gomarkdown-markdown eclipseo
golang-github-google-goterm dcavalca
golang-github-google-pprof jchaloup mikelo2
golang-github-google-querystring mikelo2
golang-github-gorilla-csrf mikelo2
golang-github-gorilla-css athoscr
golang-github-gorilla-handlers jchaloup mikelo2
golang-github-gorilla-schema alexsaezm
golang-github-gorilla-securecookie jchaloup mikelo2
golang-github-gorilla-sessions jchaloup mikelo2
golang-github-gorp-3 dcavalca
golang-github-gosexy-gettext zyga
golang-github-gosuri-uilive dcavalca
golang-github-graylog2-gelf alexsaezm
golang-github-gregjones-httpcache jchaloup mikelo2
golang-github-grpc-ecosystem-gateway alexsaezm
golang-github-grpc-ecosystem-gateway-2 fale
golang-github-gucumber eclipseo
golang-github-guregu-null eclipseo
golang-github-h2non-parth mikelo2
golang-github-hailocab-hostpool mikelo2
golang-github-hairyhenderson-codeowners mikep
golang-github-hako-durafmt qulogic
golang-github-hanwen-fuse orphan
golang-github-harrymichal-version harrymichal
golang-github-hashicorp-hclog alexsaezm
golang-github-hashicorp-mdns jchaloup mikelo2
golang-github-hashicorp-msgpack fuller
golang-github-hashicorp-syslog dcavalca
golang-github-hdrhistogram mikelo2
golang-github-henvic-httpretty fab
golang-github-hexdigest-gowrap dcavalca
golang-github-hhrutter-lzw fale
golang-github-hhrutter-tiff fale
golang-github-hinshun-vt10x jdoss mikelo2
golang-github-hodgesds-perf-utils fuller
golang-github-hsiafan-glow fab
golang-github-hsiafan-vlog fab
golang-github-huandu-xstrings mikelo2
golang-github-hub    jaymzh
golang-github-hudl-fargo alexsaezm
golang-github-hugelgupf-socketpair dcavalca
golang-github-hydrogen18-memlistener alexsaezm
golang-github-ianbruene-difflib dfateyev
golang-github-iancoleman-strcase alexsaezm
golang-github-ianlancetaylor-demangle jchaloup mikelo2
golang-github-iguanesolutions-systemd-5 mikelo2
golang-github-inconshreveable-log15 agerstmayr nathans
golang-github-influxdata-influxdb1-client mikelo2
golang-github-insomniacslk-termhook dcavalca
golang-github-insomniacslk-xjson dcavalca
golang-github-itchyny-timefmt mikelo2
golang-github-j-keck-arping eclipseo
golang-github-jackc-chunkreader-2 linkdupont
golang-github-jackc-pgconn eclipseo
golang-github-jackc-pgio eclipseo
golang-github-jackc-pgpassfile eclipseo
golang-github-jackc-pgproto3 eclipseo
golang-github-jackc-pgservicefile eclipseo
golang-github-jackc-pgtype eclipseo
golang-github-jackc-pgx eclipseo
golang-github-jackc-puddle eclipseo
golang-github-jarcoal-httpmock mikelo2
golang-github-jawher-mow-cli eclipseo
golang-github-jbenet-context rathann
golang-github-jdkato-prose athoscr
golang-github-jedisct1-clocksmith eclipseo jchaloup
golang-github-jedisct1-dlog eclipseo jchaloup
golang-github-jedisct1-dnsstamps eclipseo jchaloup
golang-github-jedisct1-hpke-compact eclipseo
golang-github-jedisct1-minisign eclipseo jchaloup
golang-github-jedisct1-xsecretbox eclipseo jchaloup
golang-github-jeffail-gabs mikelo2
golang-github-jessevdk-flags mikelo2
golang-github-jhillyerd-enmime eclipseo
golang-github-jinzhu-gorm mikelo2
golang-github-jinzhu-inflection mikelo2
golang-github-jinzhu-now qulogic
golang-github-jlaffaye-ftp jchaloup mikelo2
golang-github-jmhodges-clock alexsaezm
golang-github-jmoiron-sqlx alexsaezm
golang-github-joho-godotenv fuller
golang-github-josharian-intern mikelo2
golang-github-jpillora-ansi fab
golang-github-jpillora-backoff fab
golang-github-jpillora-requestlog fab
golang-github-jpillora-sizestr fab
golang-github-jpillora-tld fab
golang-github-jsimonetti-pwscheme fale
golang-github-jsimonetti-rtnetlink fuller
golang-github-json-iterator mikelo2
golang-github-jtolds-gls jchaloup mikelo2
golang-github-julienschmidt-httprouter jchaloup mikelo2
golang-github-jwt    gundersanne obudai
golang-github-jwt-4  alexsaezm
golang-github-jzelinskie-whirlpool mikelo2
golang-github-k-sone-critbitgo eclipseo jchaloup
golang-github-k0kubun-ansi mikelo2
golang-github-kalafut-imohash dcavalca
golang-github-kardianos-osext fuller
golang-github-kardianos-service jchaloup mhayden
golang-github-karrick-godirwalk mikelo2
golang-github-karrick-golf mikelo2
golang-github-kballard-shellquote mikelo2
golang-github-kelvins-sunrisesunset cheeselee
golang-github-kennygrant-sanitize eclipseo
golang-github-kevinburke-ssh-config rathann
golang-github-kisielk-sqlstruct mikelo2
golang-github-kisom-goutils eclipseo
golang-github-kit    alexsaezm
golang-github-kit-log alexsaezm
golang-github-klauspost-cpuid mrunge
golang-github-klauspost-pgzip dcavalca
golang-github-knetic-govaluate alexsaezm
golang-github-kolo-xmlrpc alexsaezm
golang-github-koofr-httpclient mikelo2
golang-github-koofr-koofrclient mikelo2
golang-github-koppacetic-gpsd eclipseo
golang-github-kr-binarydist fab
golang-github-kr-fs  jchaloup mikelo2
golang-github-kr-pretty alexsaezm jchaloup
golang-github-kr-pty jchaloup mikelo2
golang-github-kr-text alexsaezm jchaloup
golang-github-kyoh86-xdg eclipseo
golang-github-kyokomi-emoji athoscr olem
golang-github-labbsr0x-bindman-dns-webhook eclipseo
golang-github-labbsr0x-goh eclipseo
golang-github-labstack-echo-4 mikelo2
golang-github-labstack-gommon obudai
golang-github-lair-framework-nmap fab
golang-github-lann-builder dcavalca
golang-github-lann-ps dcavalca
golang-github-ledisdb eclipseo
golang-github-leodido-urn mikelo2
golang-github-lestrrat-apache-logformat bdperkin
golang-github-lestrrat-envload bdperkin
golang-github-lestrrat-strftime bdperkin
golang-github-leveldb eclipseo
golang-github-liamg-scout fab
golang-github-liamg-tml fab
golang-github-lib-pq mikelo2
golang-github-libgit2-git2go qulogic
golang-github-liggitt-tabwriter eclipseo
golang-github-linode-linodego mikep
golang-github-lithammer-dedent eclipseo
golang-github-lithammer-fuzzysearch atim mikelo2
golang-github-lofanmi-pinyin cheeselee
golang-github-logfmt alexsaezm
golang-github-logrusorgru-aurora fab
golang-github-lucasb-eyer-colorful qulogic
golang-github-lunixbochs-vtclean atim
golang-github-magiconair-properties mikelo2
golang-github-mailru-easyjson mikelo2
golang-github-makenowjust-heredoc mikelo2
golang-github-malfunkt-iprange fab
golang-github-manifoldco-promptui eclipseo
golang-github-marcinbor85-gohex qulogic
golang-github-markbates-errx mikelo2
golang-github-markbates-oncer mikelo2
golang-github-markbates-pkger eclipseo
golang-github-markbates-safe mikelo2
golang-github-marten-seemann-qpack mikelo2
golang-github-martinhoefling-goxkcdpwgen fale
golang-github-martini alexsaezm
golang-github-masterminds-semver fuller
golang-github-masterminds-semver-1 eclipseo
golang-github-masterminds-vcs dcavalca
golang-github-matryer-try qulogic
golang-github-mattn-colorable mikelo2
golang-github-mattn-ieproxy mikelo2
golang-github-mattn-isatty mikelo2
golang-github-mattn-pointer v02460
golang-github-mattn-runewidth mikelo2
golang-github-mattn-shellwords qulogic
golang-github-mattn-sqlite3 mikelo2
golang-github-mattn-tty fale
golang-github-mattn-xmlrpc fuller
golang-github-max-sum-base32768 mikelo2
golang-github-mbndr-figlet4go atim
golang-github-mdlayher-dhcp6 fab
golang-github-mdlayher-ethernet dcavalca
golang-github-mdlayher-genetlink fuller
golang-github-mdlayher-netlink dcavalca
golang-github-mdlayher-raw dcavalca
golang-github-mdlayher-wifi copperi
golang-github-mesos  eclipseo
golang-github-mgutz-ansi logic
golang-github-mgutz-logxi logic
golang-github-mholt-archiver rathann
golang-github-michaelklishin-rabbit-hole logic
golang-github-miekg-pkcs11 alexsaezm
golang-github-mikioh-ipaddr eclipseo
golang-github-miolini-datacounter eclipseo
golang-github-mitchellh-colorstring mikelo2
golang-github-mitchellh-copystructure alexsaezm
golang-github-mitchellh-hashstructure qulogic
golang-github-mitchellh-hashstructure-2 fuller
golang-github-mitchellh-homedir mikelo2
golang-github-mitchellh-mapstructure jchaloup mikelo2
golang-github-mitchellh-ps mikelo2
golang-github-mitchellh-reflectwalk alexsaezm
golang-github-mitchellh-testing-interface eclipseo
golang-github-mitchellh-vnc eclipseo
golang-github-mitchellh-wordwrap mikelo2
golang-github-mmarkdown-mmark eclipseo
golang-github-mndrix-tap eclipseo
golang-github-mohae-deepcopy alexsaezm
golang-github-montanaflynn-stats athoscr
golang-github-morikuni-aec alexsaezm
golang-github-mozillazg-pinyin cheeselee
golang-github-mr-tron-base58 eclipseo
golang-github-mreiferson-httpclient mikelo2
golang-github-mroach-rom64 dcavalca
golang-github-msteinert-pam felixonmars zsun
golang-github-muesli-crunchy fab
golang-github-muesli-reflow jdoss mikelo2
golang-github-muesli-smartcrop athoscr
golang-github-muesli-termenv jdoss mikelo2
golang-github-muhammadmuzzammil1998-jsonc mikelo2
golang-github-multiformats-base32 eclipseo
golang-github-multiformats-base36 eclipseo
golang-github-multiformats-multibase eclipseo
golang-github-mvo5-goconfigparser zyga
golang-github-mvo5-uboot eclipseo
golang-github-mxk-flowrate mikelo2
golang-github-namedotcom eclipseo
golang-github-naoina-stringutil eclipseo
golang-github-naoina-toml eclipseo
golang-github-natefinch-pie mikelo2
golang-github-nathanaelle-syslog5424-2 bdperkin
golang-github-nbutton23-zxcvbn fab
golang-github-ncw-acd jchaloup mikelo2
golang-github-ncw-swift alexsaezm jchaloup
golang-github-ncw-swift-2 mikelo2
golang-github-nfnt-resize felixonmars zsun
golang-github-nicksnyder-i18n qulogic
golang-github-nicksnyder-i18n-2 qulogic
golang-github-nightlyone-lockfile eclipseo
golang-github-niklasfasching-org qulogic
golang-github-npat-efault-poller fab
golang-github-nrdcg-dnspod eclipseo
golang-github-nrdcg-goinwx eclipseo
golang-github-ns3777k-shodan fab
golang-github-nsf-termbox eclipseo jchaloup
golang-github-nu7hatch-gouuid eclipseo
golang-github-nwaples-rardecode rathann
golang-github-nwidger-jsoncolor eclipseo jchaloup
golang-github-nxadm-tail mikelo2
golang-github-olekukonko-tablewriter mikelo2
golang-github-olekukonko-ts eclipseo
golang-github-olivere-env fab
golang-github-onsi-ginkgo jchaloup mikelo2
golang-github-onsi-gomega jchaloup mikelo2
golang-github-op-logging mikelo2
golang-github-openapi-inflect dcavalca
golang-github-opentracing-basictracer eclipseo
golang-github-oschwald-geoip2 eclipseo
golang-github-oschwald-maxminddb eclipseo
golang-github-otiai10-copy mikelo2
golang-github-otiai10-mint mikelo2
golang-github-owenrumney-sarif mikelo2
golang-github-pact-foundation eclipseo
golang-github-parnurzeal-gorequest fab
golang-github-path-network-mmproxy dcavalca
golang-github-patrickmn-cache mikelo2
golang-github-pborman-getopt mikelo2
golang-github-pborman-uuid eclipseo
golang-github-pelletier-toml-2 mikep
golang-github-performancecopilot-speed alexsaezm
golang-github-peterbourgon-diskv jchaloup mikelo2
golang-github-peterh-liner eclipseo
golang-github-peterhellberg-link eclipseo
golang-github-pgaskin-koboutils dcavalca
golang-github-phayes-freeport fab
golang-github-phayes-permbits alexsaezm
golang-github-philhofer-fwd mikelo2
golang-github-pierrec-cmdflag mikelo2
golang-github-pierrre-geohash eclipseo
golang-github-pingcap-errors alexsaezm
golang-github-pkg-browser mikelo2
golang-github-pkg-diff dcavalca
golang-github-pkg-term dcavalca
golang-github-playground-assert-2 mikelo2
golang-github-playground-locales mikelo2
golang-github-playground-universal-translator mikelo2
golang-github-playground-validator-10 alexsaezm
golang-github-pmezard-difflib mikelo2
golang-github-posener-complete alexsaezm
golang-github-posener-complete-2 eclipseo
golang-github-powerman-check eclipseo
golang-github-powerman-deepequal eclipseo
golang-github-pressly-goose dcavalca
golang-github-projectdiscovery-blackrock mikelo2
golang-github-projectdiscovery-cdncheck fab
golang-github-projectdiscovery-chaos-client mikelo2
golang-github-projectdiscovery-clistats mikelo2
golang-github-projectdiscovery-fdmax fab
golang-github-projectdiscovery-fileutil mikelo2
golang-github-projectdiscovery-goflags mikelo2
golang-github-projectdiscovery-gologger fab
golang-github-projectdiscovery-hmap mikelo2
golang-github-projectdiscovery-httputil mikelo2
golang-github-projectdiscovery-httpx fab
golang-github-projectdiscovery-ipranger mikelo2
golang-github-projectdiscovery-iputil mikelo2
golang-github-projectdiscovery-mapcidr fab mikelo2
golang-github-projectdiscovery-reflectutil mikelo2
golang-github-projectdiscovery-retryabledns fab mikelo2
golang-github-projectdiscovery-sliceutil mikelo2
golang-github-projectdiscovery-stringsutil mikelo2
golang-github-puerkitobio-purell alexsaezm
golang-github-puerkitobio-urlesc alexsaezm
golang-github-putdotio-putio mikelo2
golang-github-quay-goval-parser eclipseo
golang-github-racingmars-go3270 dcavalca
golang-github-radovskyb-watcher fuller
golang-github-rasky-xdr mikelo2
golang-github-rclone-ftp mikelo2
golang-github-rcrowley-metrics alexsaezm
golang-github-redteampentesting-monsoon fab
golang-github-reiver-oi fab
golang-github-reiver-telnet fab
golang-github-remeh-sizedwaitgroup mikelo2
golang-github-remyoudompheng-bigfft eclipseo jchaloup
golang-github-restic-chunker saluki
golang-github-revel  alexsaezm
golang-github-revel-log15 alexsaezm
golang-github-revel-pathtree alexsaezm
golang-github-rfjakob-eme jchaloup mikelo2
golang-github-rican7-retry eclipseo
golang-github-rivo-tview mikelo2
golang-github-rivo-uniseg jdoss
golang-github-riywo-loginshell eclipseo
golang-github-rjeczalik-notify linkdupont
golang-github-robertkrimen-otto eclipseo jchaloup
golang-github-rodaine-hclencoder bdperkin
golang-github-rogpeppe-fastuuid alexsaezm
golang-github-rs-cors alexsaezm
golang-github-rs-xid mikelo2
golang-github-rs-zerolog mikelo2
golang-github-rubenv-sql-migrate dcavalca
golang-github-rubyist-tracerx fuller
golang-github-rwcarlsen-goexif mikep
golang-github-ryanuber-columnize alexsaezm jchaloup
golang-github-ryanuber-glob eclipseo
golang-github-sabhiram-gitignore eclipseo
golang-github-sagikazarmark-crypt mikelo2
golang-github-saintfish-chardet fab
golang-github-samuel-zookeeper eclipseo
golang-github-sanity-io-litter qulogic
golang-github-saracen-walker qulogic
golang-github-schollz-cli-2 dcavalca
golang-github-schollz-closestmatch fale
golang-github-schollz-croc dcavalca
golang-github-schollz-logger dcavalca
golang-github-schollz-mnemonicode dcavalca
golang-github-schollz-pake-3 dcavalca
golang-github-schollz-peerdiscovery dcavalca
golang-github-schollz-progressbar-2 dcavalca
golang-github-schollz-progressbar-3 dcavalca
golang-github-sean-seed alexsaezm
golang-github-segmentio-ksuid gundersanne
golang-github-serialx-hashring alexsaezm
golang-github-sevlyar-daemon eclipseo jchaloup
golang-github-sgreben-flagvar linkdupont
golang-github-shellcode33-vm-detection fab
golang-github-shiena-ansicolor jchaloup mikelo2
golang-github-shogo82148-shuffle mikep
golang-github-shopify-logrus-bugsnag alexsaezm
golang-github-shopify-sarama alexsaezm
golang-github-shopify-toxiproxy eclipseo
golang-github-shopspring-decimal alexsaezm jchaloup
golang-github-shurcool-githubv4 mikelo2
golang-github-shurcool-graphql mikelo2
golang-github-shurcool-httpfs alexsaezm jchaloup
golang-github-shurcool-httpgzip alexsaezm jchaloup
golang-github-shurcool-vfsgen alexsaezm
golang-github-siddontang eclipseo
golang-github-siddontang-goredis eclipseo
golang-github-siddontang-rdb eclipseo
golang-github-siddontang-snappy eclipseo
golang-github-sirupsen-logrus alexsaezm
golang-github-skip2-qrcode fale
golang-github-skratchdot-open mikelo2
golang-github-smartystreets-assertions jchaloup mikelo2
golang-github-smartystreets-aws-auth eclipseo
golang-github-smartystreets-goconvey alexsaezm jchaloup
golang-github-smartystreets-gunit eclipseo
golang-github-snapcore-gettext bboozzoo zyga
golang-github-songgao-water fab
golang-github-sony-gobreaker alexsaezm
golang-github-sophaskins-efs2tar dcavalca
golang-github-soundcloud-runit fuller
golang-github-sourcegraph-annotate eclipseo jchaloup
golang-github-sourcegraph-jsonrpc2 mikelo2
golang-github-sourcegraph-syntaxhighlight eclipseo jchaloup
golang-github-spf13-cast mikelo2
golang-github-spf13-fsync athoscr fale
golang-github-spf13-jwalterweatherman qulogic
golang-github-spf13-viper mikelo2
golang-github-spyzhov-ajson eclipseo
golang-github-ssgelm-cookiejarparser qulogic
golang-github-ssor-bom eclipseo
golang-github-stack  agerstmayr nathans
golang-github-stathat alexsaezm
golang-github-stoewer-strcase alexsaezm
golang-github-streadway-amqp logic
golang-github-streadway-handy alexsaezm
golang-github-stretchr-objx fale jchaloup mikelo2
golang-github-stretchr-testify fale jchaloup mikelo2
golang-github-subosito-gotenv qulogic
golang-github-syndtr-goleveldb jchaloup mikelo2
golang-github-t3rm1n4l-mega mikelo2
golang-github-task   fuller
golang-github-tchap-patricia alexsaezm
golang-github-tdewolff-minify qulogic
golang-github-tdewolff-parse qulogic
golang-github-tdewolff-test qulogic
golang-github-teambition-rrule cheeselee
golang-github-temoto-robotstxt fab
golang-github-termie-shutil dfateyev
golang-github-test-deep eclipseo jchaloup mikelo2
golang-github-theupdateframework-notary alexsaezm
golang-github-thlib-timezone-local mikelo2
golang-github-thoas-funk alexsaezm
golang-github-thoj-ircevent eclipseo
golang-github-tidwall-pretty mikelo2
golang-github-tinylib-msgp alexsaezm
golang-github-tj-assert mikep
golang-github-tj-buffer mikep
golang-github-tj-spin mikep
golang-github-tmc-grpc-websocket-proxy alexsaezm
golang-github-tomasen-realip alexsaezm
golang-github-tomnomnom-linkheader fab
golang-github-tomnomnom-rawhttp fab
golang-github-tomnomnom-xtermcolor atim
golang-github-tonistiigi-actions-cache alexsaezm
golang-github-tonistiigi-fsutil alexsaezm
golang-github-tonistiigi-rosetta orphan
golang-github-tonistiigi-units alexsaezm
golang-github-tonistiigi-vt100 alexsaezm
golang-github-transip-gotransip eclipseo
golang-github-tscholl2-siec dcavalca
golang-github-ttacon-chalk alexsaezm
golang-github-tv42-httpunix mikelo2
golang-github-twinj-uuid alexsaezm
golang-github-twmb-murmur3 dcavalca
golang-github-twpayne-pinentry laiot
golang-github-twpayne-waypoint eclipseo
golang-github-u-root-iscsinl dcavalca
golang-github-uber-athenadriver eclipseo
golang-github-uber-tally alexsaezm
golang-github-ugorji alexsaezm
golang-github-ulikunitz-xz rathann
golang-github-urfave-cli alexsaezm
golang-github-urfave-cli-2 mikelo2 nathans
golang-github-urfave-negroni alexsaezm
golang-github-valyala-bytebufferpool alexsaezm
golang-github-valyala-fasthttp fab
golang-github-valyala-fasttemplate alexsaezm
golang-github-valyala-tcplisten fab
golang-github-vincent-petithory-dataurl blowry
golang-github-vividcortex-ewma jchaloup mikelo2
golang-github-vividcortex-gohistogram alexsaezm
golang-github-vividcortex-mysqlerr agerstmayr nathans saluki
golang-github-vivint-infectious mikelo2
golang-github-vtolstov-ioctl dcavalca
golang-github-weppos-publicsuffix mikelo2
golang-github-x-cray-logrus-prefixed-formatter dcavalca
golang-github-xeonx-timeago alexsaezm
golang-github-xiang90-probing alexsaezm jchaloup
golang-github-xlab-handysort saluki
golang-github-xlab-treeprint alexsaezm
golang-github-xlzd-gotp mikelo2
golang-github-xo-terminfo eclipseo
golang-github-xordataexchange-crypt eclipseo
golang-github-xrash-smetrics mikelo2
golang-github-yl2chen-cidranger fab
golang-github-youmark-pkcs8 mikelo2
golang-github-yudai-golcs agerstmayr nathans
golang-github-yuin-goldmark qulogic
golang-github-yuin-goldmark-emoji mikelo2
golang-github-yuin-gopher-lua eclipseo jchaloup
golang-github-yvasiyarov-gorelic alexsaezm
golang-github-yvasiyarov-newrelic-platform alexsaezm
golang-github-zclconf-cty mikelo2
golang-github-zeebo-errs mikelo2
golang-github-ziutek-mymysql dcavalca
golang-github-ziutek-telnet dcavalca
golang-github-zookeeper-zk alexsaezm
golang-github-zyedidia-glob eclipseo jchaloup
golang-github-zyedidia-highlight atim
golang-github-zyedidia-pty eclipseo jchaloup
golang-github-zyedidia-terminal eclipseo jchaloup
golang-gitlab-commonmark-linkify eclipseo
golang-gitlab-esr-fqme dfateyev
golang-gitlab-yawning-utls eclipseo
golang-goftp-server  mikelo2
golang-gonum-1       alexsaezm
golang-gopkg-alecthomas-kingpin-2 fuller
golang-gopkg-asn1-ber-1 eclipseo
golang-gopkg-check-1 mikelo2
golang-gopkg-cheggaaa-pb-1 alexsaezm
golang-gopkg-errgo-2 dcavalca
golang-gopkg-gcfg-1  alexsaezm
golang-gopkg-gorp-1  dcavalca
golang-gopkg-h2non-gock-1 mikelo2
golang-gopkg-inf-0   mikelo2
golang-gopkg-logex-1 mikelo2
golang-gopkg-macaroon-1 eclipseo
golang-gopkg-mgo-2   eclipseo
golang-gopkg-natefinch-lumberjack-2 alexsaezm jchaloup
golang-gopkg-neurosnap-sentences-1 mikep
golang-gopkg-olivere-elastic-2 eclipseo
golang-gopkg-op-logging-1 gotmax23 jrische
golang-gopkg-readline-1 alexsaezm jchaloup
golang-gopkg-redis-6 alexsaezm
golang-gopkg-robfig-cron-3 fale
golang-gopkg-russross-blackfriday-1 alexsaezm
golang-gopkg-russross-blackfriday-2 alexsaezm dfateyev
golang-gopkg-tylerb-is-1 dcavalca
golang-gopkg-warnings-0 mikelo2
golang-gorm          eclipseo
golang-jaytaylor-html2text eclipseo
golang-moul-http2curl fab
golang-mozilla-pkcs7 alexsaezm
golang-mvdan-editorconfig dcavalca
golang-mvdan-sh-3    dcavalca
golang-mvdan-xurls   alexsaezm
golang-nhooyr-websocket mikep
golang-rsc-binaryregexp alexsaezm
golang-rsc-pdf       mikelo2
golang-schwanenlied-yawning-bsaes eclipseo
golang-sourcegraph-appdash eclipseo
golang-sourcegraph-appdash-data eclipseo
golang-starlark      alexsaezm
golang-storj-drpc    mikelo2
golang-uber-atomic   mikelo2
golang-uber-automaxprocs olem
golang-uber-config   eclipseo
golang-uber-dig      eclipseo
golang-uber-fx       eclipseo
golang-uber-goleak   fab
golang-uber-multierr mikelo2
golang-uber-ratelimit mikelo2
golang-uber-zap      mikelo2
golang-x-arch        alexsaezm
golang-x-debug       alexsaezm jchaloup
golang-x-image       alexsaezm
golang-x-lint        alexsaezm
golang-x-mobile      alexsaezm
golang-x-perf        alexsaezm jchaloup
golang-x-term        alexsaezm
golang-x-tools       fuller qulogic
golang-x-xerrors     alexsaezm
golang-xorm-builder  eclipseo
goloris              fab
goocanvas2           hguemar
gotags               jchaloup
gpick                luya
gpsim                rrankin
gqrx                 daveo jskarvad
grace                jamatos terjeros
grammalecte          melmorabity
grantlee-qt5         rdieter
gravity-beams-and-evaporating-stars suve
gretl                hannes
greybird             kevin lbazan nonamedotc
grilo-plugins        victortoso
grimmer-proggy-squaresz-fonts bojan
grimmer-proggy-tinysz-fonts bojan
grin                 terjeros
gron                 lkiesow
gsequencer           jkraehemann nonamedotc
gsmartcontrol        brouhaha vascom
gssdp                kalev
gst123               siddhesh
gstream              jwrdegoede
gstreamer-plugins-espeak chimosky wtaymans
gstreamer1-doc       wtaymans
gstreamer1-plugins-bad-free uraeus wtaymans yselkowitz
gstreamer1-rtsp-server wtaymans
gstreamer1-vaapi     farnz wtaymans
gstreamermm          rathann
gthree               alexl atim
gti                  ib54003
gtk+extra            rrankin
gtk-murrine-engine   raveit65 robert
gtk-sharp-beans      tpokorra
gtk-sharp2           laxathom rhughes rstrode tpokorra
gtk-sharp3           tpokorra
gtk-unico-engine     melmorabity
gtk-v4l              huzaifas
gtk2                 alexl mclasen mkasik rhughes rstrode
gtkdatabox           ework vascom
gtkhtml3             alexl rhughes rstrode trawets
gtkimageview         nphilipp
gtkmm2.4             kalev
gtksourceview3       mclasen
gtksourceview4       pwalter
gtksourceviewmm      dodji hguemar
gtts                 pbrobinson
gtts-token           pbrobinson
gudev-sharp          tpokorra
guile30              tkorbar
guitarix             tartina verdurin
gummi                fab
gupnp-av             kalev
gupnp-dlna           kalev
gwenview             nucleo rdieter than
gxemul               spot
h5py                 orion stevetraylen terjeros
hakrevdns            fab
halibut              jskarvad
hawknl               jwrdegoede
hawtjni              didiksupriadi41 mizdebsk
haxe                 andyli rjones
hdf                  orion sagitter
heimdal              abo jaltman ktdreyer
heimdall             echevemaster jorti luk1337
herbstluftwm         sham1
hexer                akasko jvanek
hid4java             jonny
hiran-perizia-fonts  ankursinha
hiredis              cicku kevin orion
hitch                ingvar
horai-ume-fonts      kvolny
howl                 atim pwalter
hpl                  jskarvad
htmlcxx              martinkg
htmltest             qulogic
htslib               jaruga
http_ping            alciregi
httperf              thm
httprobe             fab
hugs98               petersen
human-theme-gtk      luigifab
hxtools              cicku till
hydra                rcallicotte rebus
hylafax+             faxguy
hyperrogue           dulsi
hyperscan            jtaylor
i3-gaps              defolos
i3lock               cicku defolos fale
iagno                mclasen
iaxclient            smani spot
ibm-plex-fonts       suraia
ibsim                honli
icc-profiles-basiccolor-printing2009 kwizart
icc-profiles-openicc kwizart
icecast              besser82 ixs ppisar
icestorm             brouhaha lkundrak somlo
id3lib               adrian amigadave
ignition-cmake       rmattes
igt-gpu-tools        airlied lyude
iguanaIR             leamas
ilmbase              kwizart rdieter
imapsync             jonathanspw nb
imaptest             robert
inertiablast         dulsi
infinipath-psm       honli
inkscape-psd         moceap
innoextract          adetiste moceap
insight              lkundrak monnerat
intel-compute-runtime aekoroglu frantisekz rathann
intel-igc            aekoroglu frantisekz
intel-mediasdk       aekoroglu rathann
intel-opencl-clang   aekoroglu frantisekz
intelhex             pbrobinson
iodine               somlo
ipa-gothic-fonts     tagoh
ipa-mincho-fonts     tagoh
ipa-pgothic-fonts    tagoh
ipa-pmincho-fonts    tagoh
ipe                  nonamedotc
ipmctl               aekoroglu
ipmiutil             orphan
iptstate             psutter twoerner
irrlicht             orion spot
iscan-firmware       slaanesh
isl                  dhowells jakub law
iso-country-flags    tieugene
itcl                 krege orion
itk                  krege orion
itop                 flo
iv                   ankursinha
ivtv-firmware        jwboyer kwizart
ivykis               czanik
iwidgets             krege orion
iwyu                 xvitaly
iyfct                mystro256
jack-audio-connection-kit nphilipp oget rathann tartina
jack-keyboard        tartina
jack-mixer           eeickmeyer
jacoco               didiksupriadi41 jvanek
jaero                vascom
jakarta-el           mbooth
jakarta-interceptors korkeala
jakarta-saaj         didiksupriadi41 mkoncek
jakarta-server-pages korkeala
jakarta-xml-ws       didiksupriadi41
jalv                 tartina
java-latest-openjdk  ahughes jerboaa jvanek pmikova
java-latest-openjdk-portable ahughes jandrlik jerboaa jvanek pmikova zzambers
java-packaging-howto mizdebsk
jaxen                jwrdegoede mizdebsk
jbosscache-support   orphan
jc                   salimma suve
jchardet             mbooth mizdebsk orion
jemalloc             ingvar
jericho-html         terjeros
jetty                mbooth mizdebsk
jfreechart           didiksupriadi41 lkundrak
jgoodies-common      melmorabity
jgoodies-forms       melmorabity
jgoodies-looks       melmorabity
jid                  eclipseo
jigawatts            jvanek
jmock                didiksupriadi41
jna                  anezbeda hhorak mizdebsk mkoncek zmiklank
jopt-simple          mbooth mizdebsk
jorbis               jwrdegoede
joystick-support     bruno
jpanoramamaker       jvanek
jpcre2               rathann
js-jquery            orion patches
js-jquery-mousewheel bowlofeggs ellert
js-jquery-ui         ellert
js-jquery-ui-touch-punch ellert
js-responsive-elements bowlofeggs
jsch-agent-proxy     mbooth mizdebsk
json-fortran         jussilehtola
json-parser          aekoroglu fkooman
json-table           fab
jtc                  defolos
jtidy                mizdebsk spike
julia                nalimilan
julius               spot
jwm                  aekoroglu
jxrlib               smani
k4dirstat            krege
kBuild               laxathom lkundrak sergiomb
kactivities          rdieter than
kakoune              atim jkonecny
kalibrate-rtl        jskarvad
kapman               rdieter than
kasts                thunderbirdtr
kate4                rdieter
katomic              rdieter than
kawa                 korkeala
kblackbox            rdieter than
kblocks              rdieter than
kbounce              rdieter than
kbrickbuster         jgrulich rdieter than
kcachegrind          jgrulich rdieter
kcbench              thl
kcolorchooser        rdieter than
kdb                  rdieter
kde-baseapps         rdieter than
kde-i18n             kkofler rdieter than
kde-l10n             rdieter than
kde-runtime          jgrulich kkofler rdieter than
kdebugsettings       rdieter
kdegames3            kkofler rdieter than
kdepim4              orphan
kdepimlibs           jgrulich rdieter than
kdialog              rdieter than
kdiamond             rdieter than
kdnssd-avahi         rdieter
kdsoap               farchord tdawson
keditbookmarks       rdieter than
keepassxc            germano mikelo2 nonamedotc
kerberoast           fab
kernel               acaringi airlied ajax bskeggs jcline jforbes jwboyer jwrdegoede kernel-maint linville myoung patrickt quintela sandeen steved
keybinder3           kevin m4rtink
keylime              ansasaki scorreia ueno
kf5-baloo            jgrulich rdieter than
kf5-kblog            rdieter
kf5-kdelibs4support  jgrulich rdieter than
kf5-kdesignerplugin  jgrulich rdieter than
kf5-kdewebkit        jgrulich rdieter than
kf5-khtml            jgrulich rdieter than
kf5-kirigami         rdieter
kf5-kirigami2        rdieter
kf5-kjs              jgrulich rdieter than
kf5-kjsembed         jgrulich rdieter
kf5-libkcddb         rdieter than
kfc                  dcavalca
kfind                rdieter than
kfourinline          rdieter than
kget                 jkucera rdieter than
kgoldrunner          rdieter than
khal                 mathstuf mbaldessari
kicad                avigne lkundrak stevenfalco
kigo                 rdieter than
killbots             rdieter than
kiln                 eclipseo
kim-api              ellio167 junghans
kirc                 dcavalca
kiriki               rdieter than
kjumpingcube         rdieter than
klickety             rdieter than
klines               rdieter than
kmahjongg            rdieter than
kmid2                cheeselee kkofler
kmodtool             hobbes1069 kwizart leigh123linux nvieville slaanesh
kmplayer             moceap rdieter
kmscube              ernunes
knavalbattle         rdieter than
knetwalk             rdieter than
knotes               rdieter than
koffice-kivio        kkofler rdieter
koji                 kevin mikem puiterwijk
koji-containerbuild  cverna
kokkos               cz4rs junghans rberger
koko                 aleasto
kolf                 rdieter than
kollision            rdieter than
kolourpaint          rdieter than
kongress             aleasto thunderbirdtr
konqueror            rdieter than
konquest             rdieter than
kontact              rdieter than
kpat                 rdieter than
kphotoalbum          nucleo rdieter
kproperty            rdieter
kqoauth-qt5          martinkg
krdc                 rdieter than
kreport              rdieter
kreversi             rdieter than
kshisen              rdieter than
ksirk                rdieter than
ksnakeduel           rdieter than
kspaceduel           rdieter than
ksquares             rdieter than
kstart               ktdreyer orion stevetraylen
ksudoku              rdieter than
ktikz                melmorabity
kubrick              rdieter than
kuser                kkofler
kuserfeedback        tdawson zawertun
kvirc                nucleo
kwave                sergiomb
kwayland-server      jgrulich mkyral
kwebkitpart          nucleo rdieter than
kyua                 jonathanspw
la-capitaine-icon-theme atim
labiryntowy-fonts    aekoroglu
ladspa               sergiomb wtaymans
lasi                 orion
laughlin-kde-theme   q5sys rdieter than
lazarus              suve
ldapdomaindump       fab
ldc                  cicku kalev
ldeep                fab
lector               aekoroglu
ledger               sham1
lensfun              germano grahamwhiteuk nphilipp rdieter trix
leonidas-kde-theme   q5sys rdieter than
leptonica            dchen smani
leveldb              gil ktdreyer peter stevetraylen tchaikov
levien-inconsolata-fonts kevin
lgogdownloader       blowry
lib765               lucilanga
libEMF               mschorm rathann
libFS                ajax alexl bentiss rhughes rstrode
libHX                till
libQGLViewer         jussilehtola rmattes
libXcm               cicku kwizart
libXfont             ajax alexl bentiss rhughes rstrode
libXpresent          kevin raveit65
libXvMC              ajax alexl bentiss rhughes rstrode
libXxf86dga          ajax alexl bentiss jexposit rhughes rstrode
libXxf86misc         ajax alexl bentiss rhughes rstrode
libacars             vascom
libaccounts-glib     rdieter
libaec               junghans
libaesgm             orion spot
libalkimia           rdieter
libappindicator      dcavalca echevemaster ngompa salimma tpokorra
libarcus             churchyard
libart               dcavalca
libart_lgpl          alexl rhughes rstrode yselkowitz
libass               ngompa xavierb
libast               terjeros
libax25              hobbes1069
libbatch             smani
libblocksruntime     tachoknight
libbluray            rathann slaanesh xavierb
libbonobo            alexl rhughes rstrode trawets
libbonoboui          alexl rhughes rstrode trawets
libbs2b              kvolny
libcaca              slaanesh xavierb
libcacard            crobinso elmarco jjelen jwrdegoede teuf
libcdaudio           pwalter
libcerf              jamatos junghans tdawson
libcgi               spot
libcgif              remi
libcgroup            jchaloup jsafrane nforro
libchamplain         kalev
libchardet           martinkg
libcint              jussilehtola
libcircle            junghans
libclaw              lkundrak martinkg xavierb
libcmpiutil          trawets
libcoap              pbrobinson
libcompizconfig      jskarvad
libcorrect           vascom
libcryptui           pwalter raveit65
libcrystalhd         kwizart
libcutl              sagitter
libdasm              rebus
libdbi               fjanus hhorak limb
libdbi-drivers       fjanus hhorak limb
libdbusextended-qt5  zsun
libdigidocpp         cserpentis germano
libdnet              rjones robert
libdockapp           sham1
libdrm-armada        lkundrak
libdsk               lucilanga
libecpint            junghans
libefp               jussilehtola
libepc               hguemar
liberasurecode       zaitcev
libesmtp             dcavalca jskarvad
libetnaviv           lkundrak
libevdevPlus         ngompa wef
libfep               ueno
libfilteraudio       eclipseo
libfprint            benzea smallorange
libftdi              hobbes1069 robert sharkcz
libfullock           hiwkby
libgadu              rathann
libgamerzilla        dulsi
libgdamm             hguemar spot
libgdata             rishi
libgdiplus           laxathom rhughes rstrode tpokorra
libgeotiff           devrim orion smani
libgepub             kalev rishi
libgit2              cicku pwalter
libgit2-glib         atim ignatenkobrain kalev pwalter
libglade2            alexl rhughes rstrode yselkowitz
libgle               ajax
libglib-testing      kalev
libglpng             jwrdegoede
libgnome             alexl rhughes rstrode trawets
libgnome-keyring     mclasen rishi
libgnomecanvas       alexl rhughes rstrode yselkowitz
libgnomecanvasmm26   nphilipp verdurin
libgpod              alexl chkr limb rhughes rstrode teuf tpokorra
libgta               jkucera tdawson
libhbaapi            cleech
libibcommon          dledford honli michich steved
libicns              hobbes1069 musuruan xavierb
libidn1.34           rathann
libiec61883          nphilipp slaanesh
libime               yanqiyu
libinjection         ngompa
libirman             leamas ondrejj
libjoedog            besser82 cdamian
libkcddb             rdieter than yselkowitz
libkdegames          rdieter than
libkeduvocdocument   rdieter
libkml               smani
libkrunfw            slp
liblas               devrim smani
liblbfgs             smani
liblinear            besser82
liblo                nphilipp salimma tartina
liblxqt              rdieter tieugene zsun
liblzf               stevetraylen
libmash              rhughes
libmatekbd           raveit65 rdieter robert
libmateweather       raveit65 rdieter robert
libmatroska          kwizart ngompa rathann
libmcrypt            remi spot
libmikmod            aekoroglu jwrdegoede sergiomb
libminc              ankursinha ignatenkobrain
libmodbus            sandeen
libmodman            trawets
libmp4v2             amigadave rathann
libmpris-qt5         cheeselee zsun
libmusicbrainz5      teuf
libmygpo-qt          rdieter
libmypaint           nphilipp
libnetconf2          jruzicka
libnetfilter_acct    hushan
libnice              kdudka msekleta stefanb svashisht
libnova              huzaifas
libnuml              sagitter
liboauth             salimma
liboil               ajax alexl rhughes rstrode trawets
libopkele            kevin
libopusenc           pbrobinson
libotr               pwouters
libpgf               nucleo orion rdieter tdawson
libphonenumber       sergiomb thunderbirdtr
libpng               mhlavink mmuzila nforro phracek
libpng12             mhlavink mmuzila nforro phracek rdieter
libpng15             mhlavink mmuzila nforro phracek
libpqxx              besser82 mkrupcale
libprojectM          sergiomb
libpsm2              honli kheib michich
libqtxdg             cicku lkundrak tieugene zsun
libqxt-qt5           martinkg
librabbitmq          remi
libraqm              moceap
libraw1394           nphilipp
librcd               kvolny
libreplaygain        ankursinha tdawson
libresample          jsmith
libretro-gw          atim
libretro-handy       atim
libretro-pcsx-rearmed atim
librs232             dwrobel
libsafec             aekoroglu
libsbw               sagitter
libscrypt            dfateyev
libsecp256k1         jonny peter
libsedml             sagitter
libsexy              spot
libsexymm            hguemar
libshout             jskarvad sergiomb
libsodium            carlwgeorge remi
libsoundio           jskarvad
libspf2              bojan
libspnav             hobbes1069
libsqlite3x          sailer tachoknight
libstrophe           fantom
libtar               huzaifas kdudka
libtelnet            robert slaanesh
libtermkey           asn salimma
libtoml              jeckersb
libtool              fberat fjanus jakub kasal praiskup
libtpcimgio          ankursinha
libtree              fnux
libtree-ldd          mikelo2
libtwin              dwmw2
libu2f-host          jonathanspw
libu2f-server        jonathanspw
libuInputPlus        ngompa wef
libucl               fnux
libudfread           xavierb
libuev               alciregi
libuninum            terjeros
libupnp              ajax cicku jdieter kwizart limb rathann slaanesh
libusb-compat-0.1    benzea smallorange
libusb1              benzea jwrdegoede smallorange victortoso
libusbauth-configparser kochstefan
libusbg              pbrobinson
libva-utils          kwizart
libva-v4l2-request   kwizart rathann
libvdpau-va-gl       kwizart
libvidcap            spot
libvirt-cim          trawets
libvirt-java         trawets
libvirt-python       berrange
libvirt-sandbox      jonathanspw
libvma               honli iivanov michich
libvterm             asn salimma
libwebp              smani
libwebsockets        fab
libwfut              bruno
libwhirlpool         dfateyev
libwnck              alexl jonathanspw rhughes rstrode
libwpg               dtardon
libwvstreams         jskarvad msekleta thozza
libx86               jcpunk
libxdiff             spot
libxfce4ui           kevin nonamedotc orion
libxfce4util         kevin nonamedotc
libxo                kanitha
libyubikey           nb wzzrd
libyui               jonathanspw ngompa thunderbirdtr
libyui-gtk           jonathanspw ngompa thunderbirdtr
libyui-mga           jonathanspw ngompa thunderbirdtr
libyui-mga-gtk       jonathanspw ngompa thunderbirdtr
libyui-mga-ncurses   ngompa thunderbirdtr
libyui-mga-qt        jonathanspw ngompa thunderbirdtr
libzdb               cicku jujens
lightdm              besser82 leigh123linux raveit65 rdieter tdawson
lightdm-autologin-greeter ngompa
lilv                 nphilipp tartina
lincity-ng           spot
linode-cli           cicku mikelo2 nb
[...]
rmattes    GeographicLib SkyX assimp bullet cminpack fcl flann gazebo gearbox ignition-cmake libQGLViewer mosquitto nbc nqc octomap ompl openni pcl python-catkin_lint python-rosdep python-rosinstall_generator python-rospkg qbrew sicktoolbox tinyobjloader tinyxml2
rmeggins   ansible-collection-microsoft-sql linux-system-roles
rnc        cekit
robert     SDL_sound atril audacious audacious-plugins bitlbee caja caja-actions dehydrated engrampa eom esound gtk-murrine-engine imaptest libdnet libftdi libmatekbd libmateweather libtelnet lpcnetfreedv lua-dbi lua-event lua-expat lua-filesystem lua-readline lua-sec lua-socket lua-unbound macromilter marco mate-applets mate-control-center mate-desktop mate-icon-theme mate-media mate-menu mate-menus mate-panel mate-polkit mate-screensaver mate-utils mod_log_post mozo msoffcrypto-tool openvpn-auth-ldap pcsc-cyberjack perl-Date-Holidays-DE pluma prosody python-natsort python-oletools t1utils thc-ipv6 tre xforms
rohanpm    python-ndg_httpsclient
rolivier   task
rombobeorn ahven fedora-gnat-project-common gnat-srpm-macros
rominf     SFCGAL python-accept-types python-cs python-executing python-exoscale python-folium python-gnupg python-google-i18n-address python-more-itertools python-odata-query python-pyspf python-pytest-localserver python-requests-exoscale-auth python-sentry-sdk python-sly python-stripe python-tokenize-rt python-twilio python-xml2rfc python-zxcvbn
rommell    SFCGAL python-accept-types python-cs python-exoscale python-folium python-gnupg python-google-i18n-address python-odata-query python-pytest-localserver python-requests-exoscale-auth python-sentry-sdk python-sly python-stripe python-twilio python-xml2rfc python-zxcvbn
rrankin    gpsim gtk+extra
rstrode    aisleriot dbus-sharp desktop-backgrounds echo-icon-theme firefox gconf-editor gedit gmime gnome-nettool gnome-sharp gnome-system-log gtk-sharp2 gtk2 gtkhtml3 libFS libXfont libXvMC libXxf86dga libXxf86misc libart_lgpl libbonobo libbonoboui libgdiplus libglade2 libgnome libgnomecanvas libgpod liboil libwnck rhythmbox totem xorg-x11-drv-ati xorg-x11-server yelp
sagarun    ArpON cowpatty emacs-irsim-mode lxc
sagitter   MUMPS autowrap avogadro2 avogadro2-libs coin-or-DyLP coin-or-Ipopt coin-or-Vol combblas crossguid2 hdf libcutl libnuml libsbw libsedml maeparser mmtf-cpp molequeue nativejit openmeeg pymol python-environs python-html5lib python-periodictable python-pmw qcad qwtplot3d scons smoldyn spglib superlu_dist xpra xsd
sailer     ghdl libsqlite3x mingw-cairomm mingw-drmingw mingw-gtk2 mingw-gtkmm24 mingw-jimtcl mingw-lcms mingw-lcms2 mingw-libconfuse mingw-libftdi mingw-libglade2 mingw-libglademm24 mingw-libsigc++20 mingw-libsqlite3x mingw-libxml++ mingw-mpfr mingw-plotmm mingw-sparsehash mingw-tcl mingw-wpcap mingw-zfstream octave-general octave-interval octave-optim octave-specfun
salimma    asahi-scripts bpython bsdiff btrfs-fuse build-constraints-rpm-macros compat-lua cpdup cpputest disciplining-minipod dispenso dnf-plugin-cow fennel folly-rpm-macros geary gnome-js-common gnome-keyring-sharp jc libappindicator liblo liboauth libtermkey libvterm lua-alt-getopt lua-bit32 lua-compat53 lua-filesystem lua-inotify lua-json lua-loop lua-lpeg lua-lunitx lua-moonscript lua-mpack lua-posix lua-readline lua-sql luarocks mcrouter mock-centos-sig-configs musl nickle oflb-smonohand-fonts portaudio psi-notify python-TestSlide python-atomicwrites python-blessings python-bowler python-click-log python-click-threading python-curtsies python-django-allauth python-django-compressor python-django-database-url python-django-gravatar2 python-django-picklefield python-django-q python-dkimpy python-fissix python-fixit python-howdoi python-html5lib python-keep python-linecache2 python-lupa python-matplotlib-inline python-moreorless python-nltk python-patatt python-pickleshare python-publicsuffix2 python-pure-eval python-pytest-runner python-pytest-services python-represent python-requests-download python-sphinx-hoverxref python-sphinx-kr-theme python-sphinx_selective_exclude python-usort python-volatile switchtec trousers tsl-sparse-map ubloxcfg vdirsyncer waf xbacklight
saluki     golang-github-bruth-assert golang-github-elithrar-simple-scrypt golang-github-restic-chunker golang-github-vividcortex-mysqlerr golang-github-xlab-handysort
sandeen    e2fsprogs kernel libmodbus
sbluhm     mxparser perl-Mail-RFC822-Address xmlpull xstream
scoady     python-pathtools
scorreia   keylime
scottt     Mars
sdgathman  cjdns dom4j dump1090 marked mp3fs roca-detect thttpd
semeijn    python-sphinxcontrib-apidoc
sentry     sameboy
sergesanspaille clang13 lld13 llvm11 llvm12 llvm13 xtensor xtensor-python
sergiomb   ImageMagick atf bsd-games ddnet debconf debootstrap dpkg fakechroot fakeroot fortune-mod gflags git-extras kBuild kwave ladspa libmikmod libphonenumber libprojectM libshout lpf man2html megaglest-data mirmon mlt nextcloud nodm ogre p7zip perl-Cairo-GObject perl-Geography-Countries php-facedetect pymol python-GeoIP python-pysol-cards python-rencode python-xlib rttr smokegen unar w3c-markup-validator wxGlade xpra xsd
sergiopr   blt python-pdfrw python-pywt python-sphinx-argparse python-statsmodels
sgallagh   argbash nodejs-packaging python-ModulemdTranslationHelpers python-click-man python-django-pipeline python-flake8 python-memcached python-tqdm python-whoosh
sham1      chicken herbstluftwm ledger libdockapp oksh xss-lock
sharkcz    bullet cc65 ddpt devio dmtx-utils firefox libftdi ogdi openhpi openhpi-subagent python-simpleeval pywebdav sigil squirrel uboot-tools unittest-cpp
shlomif    black-hole-solver fortune-mod freecell-solver perl-Dir-Manifest perl-Games-Solitaire-Verify perl-Math-Random-MT perl-Test-Data-Split perl-Test-RunValgrind python-freecell_solver python-pysol-cards rinutils
sic        cantera nexus python-sphinx-bootstrap-theme
sicherha   python-jenkins
siddhesh   gst123 luajit
siosm      akmods ebook-tools fedora-appstream-metadata
siwinski   ckeditor drupal7 php-Faker php-Monolog php-PHPParser php-cache-adapter-common php-cache-filesystem-adapter php-cache-integration-tests php-cache-tag-interop php-deepend-Mockery php-doctrine-annotations php-doctrine-cache php-doctrine-collections php-doctrine-datafixtures php-doctrine-doctrine-cache-bundle php-doctrine-inflector php-doctrine-lexer php-egulias-email-validator php-erusev-parsedown php-fedora-autoloader php-fig-link-util php-guzzlehttp-promises php-jdorn-sql-formatter php-masterminds-html5 php-mnapoli-phpunit-easymock php-mtdowling-jmespath-php php-ocramius-code-generator-utils php-ocramius-proxy-manager php-paragonie-random-compat php-phpdocumentor-reflection-common php-phpdocumentor-reflection-docblock2 php-phpdocumentor-type-resolver php-psr-cache php-psr-http-message php-psr-link php-psr-simple-cache php-sentry php-symfony-polyfill php-symfony4 php-twig php-webimpress-safe-writer php-webmozart-assert
skitt      gitlint
slaanesh   AMF YafaRay akmods asdcplib bitcoin-core daala egl-gbm figlet gcab iscan-firmware kmodtool libbluray libcaca libiec61883 libtelnet libupnp lpf lv2 meanwhile miniupnpc pgbouncer python-pdfrw stoken vapoursynth xorg-x11-drv-amdgpu
slankes    daemonize detox docbook2X psi qca sj-fonts xdotool
slp        libkrunfw
smallorange libfprint libusb-compat-0.1 libusb1
smani      GeographicLib alglib apitrace avl ccrtp commoncpp2 freeimage iaxclient jxrlib leptonica libbatch libgeotiff libkml liblas liblbfgs libwebp mapserver mingw-SDL_image mingw-angleproject mingw-atk mingw-expat mingw-fcgi mingw-fontconfig mingw-glew mingw-goocanvas2 mingw-graphite2 mingw-gtk2 mingw-gtksourceview3 mingw-harfbuzz mingw-hunspell mingw-libcharset mingw-libepoxy mingw-libgta mingw-libimagequant mingw-libsoup mingw-libtasn1 mingw-libvorbis mingw-libxslt mingw-libzip mingw-llvm mingw-openal-soft mingw-protobuf mingw-python-affine mingw-python-chardet mingw-python-charset-normalizer mingw-python-dateutil mingw-python-ephem mingw-python-pyparsing mingw-python-pyproj mingw-python-pytz mingw-python-pyyaml mingw-python-setuptools mingw-python-six mingw-python-tomli mingw-python-urllib3 mingw-qextserialport mingw-qt5-qt3d mingw-qt5-qtactiveqt mingw-qt5-qtcharts mingw-qt5-qtgraphicaleffects mingw-qt5-qtimageformats mingw-qt5-qtlocation mingw-qt5-qtmultimedia mingw-qt5-qtquickcontrols mingw-qt5-qtquickcontrols2 mingw-qt5-qtscript mingw-qt5-qtsensors mingw-qt5-qtserialport mingw-qt5-qtsvg mingw-qt5-qttools mingw-qt5-qttranslations mingw-qt5-qtwebchannel mingw-qt5-qtwebsockets mingw-qt5-qtwinextras mingw-qt5-qtxmlpatterns mingw-spatialindex mingw-speex mingw-spirv-headers mingw-tk mingw-twaindsm omniORB python-ephem python-flask-babel python-flask-compress python-flask-gravatar python-flask-login python-flask-paranoid python-flask-principal python-flask-security-too python-httpagentparser python-lunr python-mergedeep python-mongoengine python-pillow python-pyyaml-env-tag python-sane python-user-agents qbs qhexedit2 qt4-style-fusion scotch svg2svgt tcl-togl virtualpg xfoil xrotor
snirkel    rhythmbox
somlo      icestorm iodine nextpnr python-logzero python-migen trellis wmx yosys
souryogurt cgreen
spetros    ansible-collection-microsoft-sql linux-system-roles
spichugi   openldap
spike      apache-commons-math jtidy
spot       QuantLib R-BufferedMatrix R-DBI R-IRanges R-R6 R-RCurl R-RSQLite R-abind R-acepack R-affyio R-cachem R-crayon R-digest R-magrittr R-memoise R-plogr R-praise R-preprocessCore R-prettyunits R-qvalue R-rpm-macros R-rtracklayer R-testthat R-widgetTools allgeyer-fonts avoision c-ares efl egd elementary enlightenment fbg2 ftplib gbdfed giver gxemul iaxclient irrlicht julius libaesgm libcgi libgdamm libmcrypt libsexy libvidcap libxdiff lincity-ng luabind lwp lzma-sdk457 memchan mono-cecil-flowanalysis mono-reflection opendyslexic-fonts perl-Cairo perl-Geography-Countries perl-Gtk2 perl-Image-Base perl-Image-Size perl-Locale-Maketext-Fuzzy perl-Package-New perl-Pango physfs plee-the-bear pyke python-cerealizer python-cson python-oauth2 python-speg radius-engine rpc2 rvm silkscreen-fonts taglib-sharp tcl-tcludp tcl-tclvfs tcl-tileqt tcl-tkpng tcl-tktreectrl tcl-zlib terminology texlive texlive-base tkimg tlomt-sniglet-fonts udunits2 woodardworks-laconic-fonts xbase xblas xbsql xkeycaps xloadimage xmbdfed xorg-x11-drv-ati
spstarr    rubygem-idn xmlrpc-epi
stefanb    farstream02 libnice
stefanha   git-publish
steve      altermime amavis neomutt
steved     kernel libibcommon nfs-utils rpcsvc-proto rusers
stevenfalco kicad
stevetraylen bitmap glog h5py kstart leveldb liblzf log4c log4cpp python-beautifulsoup4 python-collectd_systemd python-django-tastypie python-humanize python-mimeparse python-pyModbusTCP python-setproctitle rubygem-ansi rubygem-curb rubygem-rchardet rubygem-systemu uberftp xcalc xfig
sthiell    clustershell
stingray   flow-tools
stransky   firefox yelp
suanand    php-gettext-gettext python-tinydb
sumantrom  python-pytest-httpx python-pytest-xprocess
supakeen   python-pdir2 python-pygments-better-html
suraia     adobe-source-serif-pro-fonts distro-info distro-info-data dput-ng ibm-plex-fonts python-precis_i18n zsh-autosuggestions zsh-syntax-highlighting
survient   fpart freight
suve       dumb-init gearhead1 gravity-beams-and-evaporating-stars jc lazarus prettyping python-whois rmlint spectrographic twa
svashisht  libnice
swt2c      CubicSDR python-blinker python-raven wxGlade
szpak      lpairs pylibacl pyxattr
tachoknight libblocksruntime libsqlite3x
tadej      pew python-virtualenv-clone
tagoh      ipa-gothic-fonts ipa-mincho-fonts ipa-pgothic-fonts ipa-pmincho-fonts
tartina    clthreads clxclient dssi guitarix jack-audio-connection-kit jack-keyboard jalv liblo lilv lv2 python-sphinx_lv2_theme serd sndfile-tools sord sratom suil
tchaikov   leveldb python3-saml
tdawson    arpack ddcutil docbook5-style-xsl game-music-emu glew kdsoap kuserfeedback libcerf libgta libpgf libreplaygain lightdm plasma-applet-translator python-lockfile python-openid-cla python-openid-teams python-versioneer python-wtforms qt6ct rubygem-idn rubygem-launchy rubygem-open4 rubygem-sqlite3 sassc sj-fonts stoken xsd xsettingsd
tdecacqu   python-sphinx-autodoc-typehints
terjeros   bpython e16 e16-docs e16-epplets e16-keyedit e16-themes editres esound eterm ganglia grace grin h5py jericho-html libast libuninum mathomatic mtpaint mycli php-pear-Net-IDNA2 pssh python-acoustid python-audioread python-beautifulsoup4 python-cli-helpers python-construct python-curtsies python-cwcwidth python-exif python-hglib python-httpsig-cffi python-terminaltables python-tidy python-unipath sqliteman t1lib
teuf       libcacard libgpod libmusicbrainz5 mingw-libepoxy mingw-libgcrypt mingw-libgpg-error mingw-openssl mingw-spice-gtk mingw-spice-protocol mingw-usbredir phodav rest0.7 spice totem xorg-x11-drv-qxl
tflink     python-flask-sqlalchemy python-wtforms python-xunitparser
than       ark audiocd-kio gwenview kactivities kapman katomic kblackbox kblocks kbounce kbrickbuster kcolorchooser kde-baseapps kde-i18n kde-l10n kde-runtime kdegames3 kdepimlibs kdialog kdiamond keditbookmarks kf5-baloo kf5-kdelibs4support kf5-kdesignerplugin kf5-kdewebkit kf5-khtml kf5-kjs kf5-libkcddb kfind kfourinline kget kgoldrunner kigo killbots kiriki kjumpingcube klickety klines kmahjongg knavalbattle knetwalk knotes kolf kollision kolourpaint konqueror konquest kontact kpat krdc kreversi kshisen ksirk ksnakeduel kspaceduel ksquares ksudoku kubrick kwebkitpart laughlin-kde-theme leonidas-kde-theme libkcddb libkdegames lovelock-kde-theme lskat migrationtools okteta oxygen-fonts palapeli phonon phonon-backend-gstreamer picmi plasma-workspace qimageblitz qt qt-assistant-adp qt-mobility qt5-qtaccountsservice qt5-qtconfiguration qtchooser qtwebkit sip smokegen solar-kde-theme soprano sparsehash sweeper texlive texlive-base verne-kde-theme
thebeanogamer flite golang-github-bgentry-netrc postfix-mta-sts-resolver python-click-spinner python-pyaes
thl        kcbench
thm        awesome botan geary httperf lmms lua-ldoc lua-lgi lua-lxc lua-markdown lua-penlight lxc pycmd python-apipkg python-execnet python-markdown2 python-py python-regex python-sphinxcontrib-trio python-textile python3-lxc python3-simpletal stk tomboy waf xcb-util-xrm
thofmann   fcl pcl python-rosdep tinyxml
thomas-dickey luit vttest
thozza     libwvstreams spyder wvdial
thrnciar   pypy pypy3.9 python-CacheControl python-cleo python-colorzero python-crashtest python-elementpath python-executing python-jaraco-path python-lockfile python-pastel python-pylev python3.8 python3.9
thunderbirdtr gamescope kasts kongress libphonenumber libyui libyui-gtk libyui-mga libyui-mga-gtk libyui-mga-ncurses libyui-mga-qt maliit-keyboard python-mailmerge python-manatools python-show-in-file-manager python-versioneer python-ytmusicapi qbs tokodon
tibbs      nazghul
tieugene   iso-country-flags liblxqt libqtxdg lumina-desktop lxqt-about lxqt-openssh-askpass nomacs python-trml2pdf qvge qxmledit
till       hxtools libHX linux-system-roles reptyr xkbset youtube-dl
timj       altermime bind-to-tinydns
tjikkun    python-raven tcltls tkdnd
tkorbar    guile30 tomsfastmath
tonyskapunk tmate
topazus    docparser prison python-git-changelog
torsava    python3.6 python3.8 python3.9
totol      python-GeoIP python-croniter python-progressbar2 python-utils python-xvfbwrapper
tpokorra   dbus-sharp dbus-sharp-glib gio-sharp gkeyfile-sharp gnome-desktop-sharp gnome-keyring-sharp gnome-sharp gtk-sharp-beans gtk-sharp2 gtk-sharp3 gudev-sharp libappindicator libgdiplus libgpod mod_mono mono-addins mono-basic mono-cecil mono-tools mono-zeroconf monodevelop-debugger-gdb mysql-connector-net ndesk-dbus ndesk-dbus-glib newtonsoft-json notify-sharp notify-sharp3 nunit nunit2 pinta restsharp sharpziplib taglib-sharp webkit2-sharp xsp
tpopela    firefox flatpak-rpm-macros
trawets    gconf-editor gtkhtml3 libbonobo libbonoboui libcmpiutil libgnome libmodman liboil libvirt-cim libvirt-java python-cov-core
tredaell   dpdk driverctl
tripledes  elisa-player
trix       golang-github-gin-contrib-cors lensfun opae ptex robin-map rocm-compilersupport
tsmetana   pfstools
tstellar   llvm11 rocm-runtime rocminfo
ttomecek   nyancat python-dockerfile-parse python-ogr python-pytest-cov python-requre sen
turboben   pgpdump python-cloudflare python-dns-lexicon
twaugh     osbs-client pyppd python-dockerfile-parse
twoerner   iptstate motif
ueno       cocot firefox keylime libfep
uraeus     farstream02 gstreamer1-plugins-bad-free
v02460     golang-github-mattn-pointer
valtri     log4c mingw-c-ares mingw-gsm mingw-libtheora mingw-log4c mingw-opus rubygem-macaddr rubygem-uuid
van        android-tools python-crcmod
vanessakris python-git-changelog
vascom     diff-pdf eiskaltdcpp elisa-player git-extras gsmartcontrol gtkdatabox jaero libacars libcorrect lv2-mdala-plugins mediaconch mimalloc plasma-applet-translator python-pymediainfo qrencode rtklib srmio svt-vp9 tcl-thread
vda        uClibc
verdurin   guitarix libgnomecanvasmm26 rtorrent samtools
vfedorenko disciplining-minipod ubloxcfg
victortoso grilo-plugins libusb1 mingw-libusbx mingw-spice-gtk mingw-spice-protocol mingw-usbredir spice xorg-x11-drv-qxl
vishalvvr  ektype-mukta-fonts shobhika-fonts smc-anjalioldlipi-fonts smc-dyuthi-fonts smc-suruma-fonts
vkrizan    python-peewee python-wtf-peewee
vmihalko   csmith
vondruch   ruby rubygem-bcrypt rubygem-cookiejar rubygem-curb rubygem-haml rubygem-hashery rubygem-hiredis rubygem-hitimes rubygem-http_parser.rb rubygem-launchy rubygem-marcel rubygem-open4 rubygem-rack rubygem-rdoc rubygem-sassc-rails rubygem-sqlite3 rubygems vim-commentary vim-fugitive
vpodzime   python-ntplib
vstinner   python3.6 python3.8 python3.9
vtrefny    python-convertdate scrot
walki      primesieve
walters    GConf2 clojure clutter fsverity-utils git-evtag gnome-desktop-testing stringtemplate
wart       tcl-tclnagios
wcohen     rr
wef        aml libevdevPlus libuInputPlus swappy wayvnc wl-gammactl wlogout wlr-sunclock wob
whot       xorg-x11-drv-ati xorg-x11-server
wtaymans   gstreamer-plugins-espeak gstreamer1-doc gstreamer1-plugins-bad-free gstreamer1-rtsp-server gstreamer1-vaapi ladspa pipewire pipewire0.2 python-gstreamer1
wwoods     cowsay-beefymiracle plymouth-theme-hot-dog
wzzrd      libyubikey pam_yubico ykclient ykpers yubikey-personalization-gui
xavierb    alchemyquest drraw foundation-icons-fonts libass libbluray libcaca libclaw libicns libudfread multiwatch nv-codec-headers perl-Encode-HanExtra perl-Image-Base perl-Image-Size perl-Net-MQTT-Simple perl-Net-UPnP perl-Sentry-Raven perl-Term-ShellUI perl-Tk-TableMatrix perl-WWW-Search php-feedcreator php-pear-Crypt-Blowfish php-pear-Crypt-CHAP python-lockfile rssh xorg-x11-drv-openchrome
xhorak     firefox yelp
xvitaly    iwyu psi psi-plus
yanqiyu    checksec ddcutil fcitx-m17n fcitx-qt5 fcitx5 fcitx5-chewing fcitx5-chinese-addons fcitx5-gtk fcitx5-hangul fcitx5-lua fcitx5-m17n fcitx5-mozc fcitx5-qt fcitx5-rime fcitx5-unikey golang-github-chi-cors golang-github-chi-render libime xcb-imdkit
yarek      disciplining-minipod ubloxcfg
ykarel     python-incremental python-treq
yselkowitz gedit gnome-panel gstreamer1-plugins-bad-free libart_lgpl libglade2 libgnomecanvas libkcddb mypaint
zaitcev    liberasurecode python-pyeclib
zawertun   kuserfeedback python-sphinxext-opengraph
zbyszek    mathjax
zdohnal    nss-mdns
zmiklank   jna mariadb10.11 ongres-scram
zsun       gcin golang-github-alecthomas-assert golang-github-alecthomas-colour golang-github-alecthomas-repr golang-github-alecthomas-units golang-github-axgle-mahonia golang-github-cheekybits-is golang-github-disintegration-imaging golang-github-fogleman-gg golang-github-msteinert-pam golang-github-nfnt-resize libdbusextended-qt5 liblxqt libmpris-qt5 libqtxdg
zuul       python-APScheduler python-ogr python-sphinx-autodoc-typehints
zvetlik    nodejs-packaging
zyga       golang-github-gosexy-gettext golang-github-mvo5-goconfigparser golang-github-snapcore-gettext
zzambers   java-latest-openjdk-portable
