Maintainers by package:
0ad                  kalev pcpa pwalter
0ad-data             bruno kalev pcpa pwalter
2048-cli             besser82
3dprinter-udev-rules churchyard
3mux                 eclipseo fab
AMF                  slaanesh
APLpy                sergiopr
ATpy                 sergiopr
Agda-stdlib          petersen
AllegroOGG           jwrdegoede
ArpON                fab sagarun
BackupPC-XS          hobbes1069
BareBonesBrowserLaunch gil orion
CFR                  jvanek
CQRlib               krege
CTML                 dcavalca
CVector              krege
CardManager          jvanek
CharLS               ankursinha devrim peter
ClanLib              jwrdegoede
ClanLib06            jwrdegoede
ClanLib1             jwrdegoede
Coin4                hobbes1069
CubicSDR             hobbes1069 swt2c
DevIL                jwrdegoede
FAudio               mooninite
Field3D              hobbes1069
FoXlibf              marcindulak
FreeSOLID            martinkg
GConf2               alexl buc caolanm rhughes walters
GLee                 lkundrak
GarminPlugin         besser82
GeographicLib        rmattes smani
GraphicsMagick       ixs rdieter
Hermes               jwrdegoede
IP2Location          pbiering remi
IQmol                jussilehtola
ImageMagick          kalev luya remi sergiomb
MUMPS                sagitter
MagicPoint           jwrdegoede
Mars                 mikep scottt
Mayavi               chedi orion
NLopt                fed500
NearTree             krege
OpenColorIO          hobbes1069
OpenMesh             aekoroglu jussilehtola
OpenMolcas           jussilehtola
OpenNL               ankursinha
OpenSceneGraph       smani
PackageKit-Qt        rdieter rhughes
PersonalCopy-Lite-soundfont jwrdegoede
PragmARC             rombobeorn
ProDy                sagitter
PyGreSQL             fjanus hhorak osloup pkubat praiskup
QsLog                jussilehtola
QuantLib             spot
R-BufferedMatrix     spot
R-DBI                spot
R-DBItest            qulogic
R-IRanges            spot
R-IRdisplay          qulogic
R-IRkernel           qulogic
R-R.cache            qulogic
R-R.devices          qulogic
R-R.methodsS3        qulogic
R-R.oo               qulogic
R-R.rsp              qulogic
R-R6                 spot
R-RCurl              spot
R-RSQLite            spot
R-V8                 qulogic
R-abind              spot
R-acepack            spot
R-affyio             spot
R-argon2             qulogic
R-askpass            qulogic
R-bench              qulogic
R-bindr              qulogic
R-bindrcpp           qulogic
R-brio               qulogic
R-broom              qulogic
R-bslib              qulogic
R-cachem             spot
R-callr              qulogic
R-cellranger         qulogic
R-cli                qulogic
R-cliapp             qulogic
R-clisymbols         qulogic
R-colorspace         qulogic
R-commonmark         qulogic
R-cpp11              qulogic
R-crayon             spot
R-credentials        qulogic
R-crosstalk          qulogic
R-curl               qulogic
R-cyclocomp          qulogic
R-dbplyr             qulogic
R-debugme            qulogic
R-desc               qulogic
R-digest             spot
R-disposables        qulogic
R-downlit            qulogic
R-dplyr              qulogic
R-dtplyr             qulogic
R-errors             iucar
R-evaluate           qulogic
R-farver             qulogic
R-fastmap            qulogic
R-filelock           qulogic
R-foghorn            qulogic
R-fontLiberation     qulogic
R-forcats            qulogic
R-formattable        qulogic
R-gargle             qulogic
R-generics           qulogic
R-gert               qulogic
R-getPass            qulogic
R-ggplot2            qulogic
R-gh                 qulogic
R-gitcreds           qulogic
R-globals            qulogic
R-glue               qulogic
R-gmailr             qulogic
R-haven              qulogic
R-here               qulogic
R-hms                qulogic
R-htmlwidgets        qulogic
R-httr               qulogic
R-hunspell           qulogic
R-import             qulogic
R-isoband            qulogic
R-jose               qulogic
R-jqr                qulogic
R-jquerylib          qulogic
R-jsonlite           qulogic
R-keyring            qulogic
R-labeling           qulogic
R-later              qulogic
R-lintr              qulogic
R-listenv            qulogic
R-lubridate          qulogic
R-magick             qulogic
R-magrittr           spot
R-memoise            spot
R-microbenchmark     qulogic
R-mockery            qulogic
R-munsell            qulogic
R-odbc               qulogic
R-openssl            qulogic
R-oskeyring          qulogic
R-pdftools           qulogic
R-pillar             qulogic
R-pingr              qulogic
R-pkgcache           qulogic
R-pkgconfig          qulogic
R-pkgdown            qulogic
R-plogr              spot
R-plyr               qulogic
R-praise             spot
R-preprocessCore     spot
R-prettycode         qulogic
R-prettyunits        spot
R-processx           qulogic
R-procmaps           qulogic
R-profmem            qulogic
R-progress           qulogic
R-promises           qulogic
R-ps                 qulogic
R-quantities         iucar
R-qvalue             spot
R-ragg               qulogic
R-rappdirs           qulogic
R-rcmdcheck          qulogic
R-readxl             qulogic
R-rematch            qulogic
R-rematch2           qulogic
R-remotes            qulogic
R-reprex             qulogic
R-reshape            qulogic
R-reshape2           qulogic
R-rex                qulogic
R-rhub               qulogic
R-rlang              qulogic
R-roxygen2           qulogic
R-rpm-macros         qulogic spot
R-rprintf            qulogic
R-rprojroot          qulogic
R-rstudioapi         qulogic
R-rsvg               qulogic
R-rtracklayer        spot
R-rversions          qulogic
R-rvest              qulogic
R-sass               qulogic
R-scales             qulogic
R-selectr            qulogic
R-shiny              qulogic
R-sodium             qulogic
R-sourcetools        qulogic
R-spelling           qulogic
R-stringi            qulogic
R-stringr            qulogic
R-sys                qulogic
R-systemfonts        qulogic
R-testthat           spot
R-textshaping        qulogic
R-tibble             qulogic
R-tidyr              qulogic
R-tidyselect         qulogic
R-tinytex            qulogic
R-tweenr             qulogic
R-unix               qulogic
R-usethis            qulogic
R-uuid               qulogic
R-vctrs              qulogic
R-viridisLite        qulogic
R-waldo              qulogic
R-waveslim           jamatos
R-webfakes           qulogic
R-webp               qulogic
R-webutils           qulogic
R-wesanderson        qulogic
R-whoami             qulogic
R-widgetTools        spot
R-withr              qulogic
R-xfun               qulogic
R-xmlparsedata       qulogic
R-xopen              qulogic
R-yaml               qulogic
R-zeallot            qulogic
R-zip                qulogic
Random123            ankursinha
RdRand               jhladky jonathanspw
SAASound             jwrdegoede
SDL2_image           fcami ngompa pwalter
SDL2_net             ignatenkobrain ngompa pcpa pwalter
SDL2_sound           rathann
SDL_mng              dulsi
SDL_sound            jonathanspw jwrdegoede robert
SFCGAL               italomga orange-kao pwouters rineau rominf rommell
SILLY                jwrdegoede
SOIL                 belegdol
Simple-Fuzzer        aconole
SkyX                 rmattes
TurboGears2          cverna ondrejj
YafaRay              luya slaanesh
abbayedesmorts-gpl   musuruan
abduco               dfateyev linkdupont
academic-admin       mikep
accerciser           kalev
act                  churchyard
adime                jwrdegoede
admeshgui            churchyard
adobe-source-serif-pro-fonts suraia
adplug               robert snirkel
aeskeyfind           rebus
afflib               kwizart rebus
aftertheflood-sparks-fonts eclipseo
agedu                jussilehtola
ags                  rathann
ahven                rombobeorn
aisleriot            mclasen rstrode
akmods               kwizart leigh123linux nvieville siosm slaanesh
akonadi-calendar-tools rdieter
alchemyquest         dulsi xavierb
alef-fonts           aekoroglu
alfont               jwrdegoede
alglib               smani
alienarena           spot
allegro              jwrdegoede sagitter
allegro5             jwrdegoede
allgeyer-fonts       spot
altermime            jorti steve timj
am-utils             iankent
amavis               jorti steve
aml                  wef
ampy                 churchyard
anagramarama         dulsi
android-tools        van
angband              dherrera
angelfish            kkofler thunderbirdtr
angelscript          pwalter
anka-coder-fonts     ankursinha
ansible-bender       gordonmessmer
ansible-collection-kubernetes-core gotmax23 kevin
ansible-collection-microsoft-sql nhosoi rmeggins spetros
antlrworks           melmorabity
ants                 jwrdegoede
apa-new-athena-unicode-fonts ankursinha
apache-commons-math  melmorabity spike
apanov-heuristica-fonts aekoroglu
apitrace             smani
apptainer            dwd
apx                  raphgro
aqsis                kwizart pmachata
aquatone             fab
archivemount         devos
argbash              sgallagh
args4j               mbooth mharmsen mizdebsk
argtable             nonamedotc pwouters
aria2                neil
arm-none-eabi-binutils-cs mhlavink
arm-trusted-firmware pbrobinson
arpack               besser82 imcinerney jussilehtola
arprec               besser82
asahi-scripts        dcavalca ngompa salimma
asdcplib             aekoroglu kwizart slaanesh
asnip                fab
aspell-en            jchaloup ljavorsk nforro
aspell-pl            jchaloup ljavorsk nforro
aspell-ru            jchaloup ljavorsk nforro
aspell-sk            ondrejj
assetfinder          fab
assimp               cottsay rmattes
ast                  orion
asterisk-sounds-core jsmith
astronomy-menus      lkundrak
atf                  sergiomb
atkmm2.36            kalev
atmel-firmware       kwizart linville
atomic-reactor       cverna maxamillion neelc twaugh
atril                raveit65 robert
attica               rdieter
audacious            danfruehauf mschwendt robert
auditwheel           churchyard
automoc              rdieter
autossh              abo fale
autowrap             sagitter
avl                  smani
avogadro2            sagitter
avogadro2-libs       sagitter
avoision             spot
awesome              thm
awesome-vim-colorschemes atim
ax25-apps            hobbes1069
bacula               slaanesh
badchars             fab
badvpn               pwalter
badwolf              lyessaadi
ballz                beuc bruno jwrdegoede
bam                  lkundrak
bash-argsparse       jonathanspw
bats                 harrymichal mikelo2
battray              aarem
bbkeys               filiperosset
bcd                  kwizart
bcm283x-firmware     labbott pbrobinson pwhalen
beaker               martstyk
beansbinding         omajid
beanstalkd           gnat
bear-factory         martinkg
beefy-miracle-backgrounds q5sys
beets                maha mbaldessari
beneath-a-steel-sky  lucilanga
beneath-a-steel-sky-cd jwrdegoede lucilanga
bes                  orphan
bfast                orphan
bgpq3                benniej
biblesync            cicku greghellings
bind-to-tinydns      timj
bio2jack             dtimms
bionetgen            sagitter zbyszek
bitcoin-core         slaanesh
bitlbee              robert
bitmap               stevetraylen
bitstream            kwizart
black-hole-solver    shlomif
blackbox             cicku filiperosset
blaze                diehlpk
blitz                sergiopr
blobwars             bruno
blogilo              kkofler
blt                  krege sergiopr
bltk                 jskarvad
bluebird             kevin maxamillion
boinc-client         germano
boomaga              martinkg
botan                thm
botan2               mrc0mmand thm
bouncycastle         ellert gil mbooth
bpython              maxamillion salimma terjeros
brightnessctl        fale ngompa pjgeorg
bsd-games            jmakey sergiomb
bsdiff               jnovy salimma
bsh                  didiksupriadi41 mizdebsk
bspwm                pidgornyy
bst-external         atim
btrfs-fuse           dcavalca salimma
btrfs-heatmap        jorti
budgie-control-center joshstrobl
bugzilla             astra eseyman
build-constraints-rpm-macros salimma
bullet               rmattes sharkcz
bumpversion          dcavalca fedepell jonathanspw
bwidget              krege
bwping               alciregi
bwrap-oci            gscrivano
byteman              jerboaa jhuttana
bzflag               jmakey
c++-gtk-utils        airwave echevemaster
c-ares               jhrozek spot
caja                 raveit65 robert
caja-actions         raveit65 robert
calligra             rdieter
calligraplan         rdieter
can-utils            jkastner linville pbrobinson pmatilai
cantera              fuller sic
capnproto            ngompa
capstats             fab
caribou              jcpunk leigh123linux
castget              logic
cataclysm-dda        dulsi
catalyst             orion
catimg               keesdejong
cava                 larsks
cbios                jwrdegoede
cc1541               besser82
cc65                 besser82 sharkcz
cdk                  cicku fale
cdlabelgen           rathann
cdogs-sdl            jwrdegoede
cdparanoia           ajax pjones
cegui06              bruno jwrdegoede
cekit                goldmann rnc
celt051              alexl
cgreen               souryogurt
check_postgres       devrim
checksec             yanqiyu
chicken              codeblock sham1
chisel               fab
chisholm-letterslaughing-fonts ankursinha
chisholm-to-be-continued-fonts aekoroglu
chmlib               peter
cinnamon             jcpunk leigh123linux
cinnamon-control-center jcpunk leigh123linux
cinnamon-desktop     jcpunk leigh123linux
cinnamon-menus       jcpunk leigh123linux
cinnamon-screensaver jcpunk leigh123linux
cinnamon-session     jcpunk leigh123linux
cinnamon-settings-daemon jcpunk leigh123linux
cjdns                sdgathman
cjs                  jcpunk leigh123linux
ckeditor             siwinski
clamav               gnat mstevens nb orion pwouters robert sergiomb steve
clamsmtp             gnat
clang13              petersen sergesanspaille
classified-ads       costello
clatd                ingvar
clc                  jonathanspw
clearlooks-compact-gnome-theme lkundrak
clementine           eclipseo
clitest              jonny
clojure              korkeala kushal walters
clojure-core-specs-alpha korkeala
clojure-maven-plugin korkeala
clojure-spec-alpha   korkeala
cloudy               sergiopr
clpeak               rathann
clthreads            tartina
clucene              rdieter
clustershell         sthiell
clutter              fmuellner kalev walters
clutter-gst3         amigadave
clutter-gtk          kalev
cluttermm            rishi
clxclient            tartina
cm_rgb               ausil
cminpack             rmattes
cmrt                 dcavalca kwizart
coan                 ajax filiperosset
cockatrice           linkdupont
cocot                ueno
code2html            moceap
codespell            mikelo2 rishi
cogl                 fmuellner kalev
coin-or-DyLP         pcpa
coin-or-Ipopt        pcpa sagitter
coin-or-Sample       pcpa sagitter
coin-or-Vol          pcpa
coldet               jwrdegoede
collectl             kzak sharkcz
colm                 filiperosset jtaylor
colorized-logs       kilobyte
combblas             sagitter
comic-neue-fonts     kvolny
commit-stream        fab
common-lisp-controller green
commoncpp2           smani
compat-flex          pmachata
compat-lua           jwrdegoede moceap remi salimma
compat-tolua++       jwrdegoede
compiz               jskarvad raveit65
compiz-plugins-extra jskarvad
compizconfig-python  jskarvad
comps-extras         ngompa
conakry-fonts        ankursinha
console-bridge       rmattes
console-image-viewer jvanek
constantine-backgrounds q5sys
corectrl             atim
corsix-th            atim
cortado              jwrdegoede
cowpatty             sagarun
cowsay-beefymiracle  ndim wwoods
cpdup                salimma
cpp-httplib          pemensik
cppcodec             aekoroglu
cpprest              c72578
cpptest              fcami
cpputest             salimma
cppzmq               qulogic
cproto               jnovy
cross-gcc            dhowells lkundrak sharkcz
crossguid            melmorabity
crossguid2           sagitter
crrcsim-addon-models dwrobel
cryptlib             senderek
cryptobone           senderek
csmith               vmihalko
csound               ndim
cstream              ndim
ctan-cm-lgc-fonts    aekoroglu
ctan-kerkis-fonts    aekoroglu
cubeb                mystro256
curlpp               filiperosset
cvise                mpolacek
cwm                  bmeneguele
cxxtools             martinkg
d-din-fonts          ngompa
d0_blind_id          pwalter
dSFMT                laxathom nalimilan
daala                kwizart slaanesh
daemonize            slankes
daggy                atim ignatenkobrain
dahdi-tools          bruno jsmith
dapl                 honli
daq                  marcindulak
darkhttpd            cicku filiperosset
darkman              linkdupont
dataquay             salimma
davix                ellert mipatras
dbus-c++             drago01
dbus-sharp           alexl caolanm rhughes rstrode tpokorra
dbus-sharp-glib      tpokorra
dcfldd               rebus
dcm2niix             ankursinha ignatenkobrain
dcmtk                ankursinha ignatenkobrain
ddate                ppisar
ddnet                rffontenelle sergiomb
ddpt                 sharkcz
ddupdate             leamas
debconf              sergiomb
debootstrap          lkundrak sergiomb
decentxml            mbooth mizdebsk
dehydrated           pwouters robert
deletemail           fab
deltarpm             defolos
deluge               mooninite
derrick              fab
detox                filiperosset slankes
dev86                jnovy lkundrak
devio                sharkcz
dhcpd-pools          cmadams
dhcping              fab
dicomanonymizer      alciregi
diff-pdf             vascom
diffmark             ppisar remi
dionaea              rebus
direnv               logic
dirgra               didiksupriadi41
disciplining-minipod abulimov dcavalca leoleovich pcullen pmazzini salimma vfedorenko
discount             greghellings
disk-utilities       dcavalca
diskscan             rathann
dispenso             salimma
distro-info          suraia
distro-info-data     suraia
dmenu                cicku mathstuf mrc0mmand psabata
dmg2img              peter
dmtx-utils           sharkcz
dnf-plugin-cow       dcavalca malmond salimma
dnscrypt-proxy       dcavalca eclipseo
dnsgen               fab
dnssec-tools         mspacek
dnstop               dfateyev gbailey konradm
dnstracer            jonathanspw
dnsx                 mikelo2
docbook-simple       ovasik
docbook-slides       ovasik
docbook2X            slankes
docbook5-schemas     osloup ovasik
docbook5-style-xsl   osloup ovasik
doclifter            defolos
docopt-cpp           pemensik
docparser            cheeselee topazus
doge                 churchyard
doh                  carlwgeorge
dolphin-connector    poetinha
dolphin-emu          mystro256
dom4j                jwrdegoede mizdebsk sdgathman
domoticz             mooninite
domtt                martinkg
douceur              athoscr
dpdk                 aconole linville tredaell
dpkg                 cheeselee sergiomb
dput-ng              suraia
drascula             lucilanga
drascula-international jwrdegoede
drascula-music       jwrdegoede
dreamweb             besser82
drehatlas-widelands-fonts jwrdegoede
drgeo-doc            brouhaha
driverctl            fbl tredaell
dropbear             cicku fedepell
dropbox-api-command  mathstuf
drpm                 jmracek mcbeeffx
drraw                xavierb
drupal7              jsmith pfrields siwinski
dssi                 tartina
dt                   agk mbroz okozina
dtv-scan-tables      mchehab till xavierb
dub                  dcavalca
duel3                jwrdegoede
duff                 echevemaster
dumb                 jwrdegoede
dumb-init            suve
dump1090             sdgathman
dumpasn1             fkooman
dvblinkremote        melmorabity
dvtm                 maxamillion psabata
dxf2gcode            dwrobel
dxpc                 ajax
dxvk-native          ngompa
dynaconf             dmsimard
dynamite             jwrdegoede
e16                  terjeros
e16-docs             terjeros
e16-epplets          terjeros
e16-keyedit          terjeros
e16-themes           terjeros
ebook-tools          rdieter siosm
ebtree               ingvar
ec2-metadata         manpaz
echo-icon-theme      alexl caolanm luya rhughes rstrode
ecj                  abbra
eclipse-swt          deamn
edgar                musuruan
editres              terjeros
efl                  dchen spot
efont-unicode-bdf    mtasaka
egd                  spot
egl-gbm              ework ngompa slaanesh
eiskaltdcpp          vascom
ektype-mukta-fonts   vishalvvr
electron-cash        orphan
electrum             js
elementary           konradm orphan spot
elements-alexandria  aalvarez
elfio                ignatenkobrain orion
elisa-player         tripledes vascom
emacs-irsim-mode     sagarun
emacs-json-reformat  melmorabity
emacs-slime          bkreuter salimma
enchant              pwalter
endlessh             mikelo2
enet                 bruno fcami jwrdegoede
engrampa             raveit65 robert
enlightenment        cicku dchen spot
ensmallen            rcurtin
entypo-fonts         leamas
enum                 kdudka ovasik
envytools            jwrdegoede lyude
eom                  raveit65 robert
ephemeral-port-reserve cstratak
erlang-base64url     bowlofeggs peter
erlang-bbmustache    peter
erlang-cf            peter
erlang-chronos       peter
erlang-cl            peter
erlang-cowboy        peter
erlang-eflame        peter
erlang-egeoip        peter
erlang-eradius       bowlofeggs peter
erlang-erlsyslog     peter
erlang-erlware_commons peter
erlang-erlydtl       peter
erlang-esasl         peter
erlang-fuse          peter
erlang-gettext       peter
erlang-goldrush      bowlofeggs jcline peter
erlang-gtknode       peter
erlang-hyper         peter
erlang-ibrowse       lkundrak peter
erlang-idna          bowlofeggs peter
erlang-jiffy         bowlofeggs lkundrak peter
erlang-jose          jcline peter
erlang-jsx           peter
erlang-kvc           peter
erlang-log4erl       peter
erlang-mochiweb      peter
erlang-mustache      peter
erlang-neotoma       peter
erlang-oauth         peter
erlang-oauth2        bowlofeggs jcline peter
erlang-p1_mysql      bowlofeggs jcline peter
erlang-p1_oauth2     bowlofeggs jcline peter
erlang-ranch         peter
erlang-rebar         jeckersb peter
erlang-rpm-macros    jeckersb peter
erlang-sd_notify     jeckersb peter
erlang-ssl_verify_fun peter
esh                  churchyard
esound               robert terjeros
eterm                terjeros
eth-tools            jijunwan
eventlog             czanik mrunge
exercism             qulogic
exo                  kevin nonamedotc
exodusii             junghans
expatpp              peter
extra-cmake-modules  cicku lkundrak rdieter
ezstream             ppisar
f21-backgrounds      besser82 q5sys
f22-backgrounds      luya q5sys
f23-backgrounds      besser82 luya
f24-backgrounds      design-sw luya
f25-backgrounds      design-sw luya
f26-backgrounds      design-sw luya
f27-backgrounds      luya
f28-backgrounds      luya
f29-backgrounds      luya
f30-backgrounds      luya
f31-backgrounds      luya tdawson
f32-backgrounds      luya tdawson
f33-backgrounds      luya
f34-backgrounds      luya
f35-backgrounds      luya tdawson
f36-backgrounds      luya tdawson
fakechroot           cicku corsepiu sergiomb
fakeroot             lkundrak moceap sergiomb
falkon               kkofler
farstream02          stefanb uraeus
fastbit              pkfed
fastlz               remi
fatcat               dcavalca
fbg2                 spot
fcgi                 kni
fcgiwrap             kni
fcitx-m17n           cheeselee yanqiyu
fcitx-qt5            cheeselee yanqiyu
fcitx5               yanqiyu
fcitx5-chewing       yanqiyu
fcitx5-chinese-addons yanqiyu
fcitx5-gtk           yanqiyu
fcitx5-hangul        yanqiyu
fcitx5-lua           yanqiyu
fcitx5-m17n          yanqiyu
fcitx5-mozc          music yanqiyu
fcitx5-qt            yanqiyu
fcitx5-rime          yanqiyu
fcitx5-unikey        yanqiyu
fcl                  rmattes thofmann
fedora-appstream-metadata siosm
fedora-flathub-remote otaylor
fedora-gnat-project-common rombobeorn
fedora-jam-kde-theme q5sys
fedora-remix-logos   spot
fedora-third-party   otaylor
fedora-workstation-backgrounds duffy luya ryanlerch
fedora-workstation-repositories mclasen
fedorainfinity-backgrounds besser82
feh                  fale mathstuf
fennel               salimma
festival             alexl caolanm mikep rhughes rstrode
fex                  mmckinst
ffuf                 fab
fgrun                bellet
fido                 besser82 cdamian
figlet               slaanesh
figtoipe             cicku
filebench            hushan
filedrop             brouhaha
firefox              alexl caolanm erack gecko-maint jgrulich kalev kengert rhughes rstrode sharkcz stransky tpopela ueno xhorak
firefox-pkcs11-loader cserpentis germano
firewalk             huzaifas
fishbowl             didiksupriadi41
five-or-more         kalev
fixedptc             dwrobel
flamerobin           makowski
flann                rmattes
flat-remix-icon-theme atim
flatpak-module-tools kalev otaylor
flatpak-rpm-macros   amigadave otaylor tpopela
flight-of-the-amazon-queen lucilanga
flight-of-the-amazon-queen-cd jwrdegoede
flite                peter rathann
flopgen              dcavalca
floppy-support       bruno
florence             cicku kevin
flow-tools           orion stingray
fluid                lkundrak plfiorini
fluxbox              dchen
flwkey               hobbes1069
flyingsaucersattack  jwrdegoede
fmit                 dwrobel
folly-rpm-macros     salimma
fontawesome-fonts    fale jjames mrunge pvoborni
fontsquirrel-crete-round-fonts rathann
foremost             filiperosset
fortune-mod          sergiomb shlomif
fossil               defolos ivzhh
foundation-icons-fonts xavierb
fpart                carlwgeorge survient
fpc                  suve
fpdns                mmckinst
freealut             jwrdegoede pwalter
freecell-solver      shlomif
freecolor            dfateyev
freeimage            bruno cicku hobbes1069 smani
freeradius-client    peter
freetds              buc
freight              survient
fsverity-utils       walters
ftgl                 ellert kwizart
ftnchek              orion
funguloids           jwrdegoede
fuse-pingfs          mikelo2
fuzza                fab
fuzzel               alebastr atim
fwts                 benzea
fzf                  qulogic
ga                   marcindulak
gabedit              mtasaka rathann
gambit-c             salimma
game-music-emu       kvolny
gamemode             benzea ngompa
gamescope            farchord frantisekz ngompa thunderbirdtr
gammastep            alebastr
ganglia              terjeros
garcon               kevin nonamedotc orion
gau2grid             jussilehtola
gazebo               rmattes
gbdfed               spot
gc                   pcpa praiskup rdieter
gcab                 elmarco slaanesh
gcin                 cheeselee cicku zsun
gconf-editor         alexl caolanm rhughes rstrode trawets
gcovr                defolos ngompa
gdlmm                dodji kalev
geany                dmaphy josef pingou
geany-themes         dmaphy
gearbox              rmattes
gearhead1            suve
gears-backgrounds    q5sys
geary                salimma thm
gecode               jdunn
gedit                alexl caolanm rhughes rstrode yselkowitz
gedit-plugin-editorconfig ferdnyc
generic-logos        ngompa
generic-release      bruno mohanboddu spot
genesis-simulator    ankursinha
geomview             rdieter
gflags               sergiomb
ggz-base-libs        pwalter rdieter
gh                   mikelo2
ghasher              filiperosset
ghc-base-compat      mathstuf petersen
ghc-base-compat-batteries petersen
ghc-base-orphans     qulogic
ghc-base-prelude     qulogic
ghc-bower-json       petersen
ghc-call-stack       petersen
ghc-conduit          petersen
ghc-conduit-extra    petersen
ghc-control-monad-free mathstuf petersen
ghc-cookie           petersen
ghc-doctest          qulogic
ghc-hoauth2          petersen
ghc-hslua-module-text petersen
ghc-hspec            dshea petersen
ghc-hspec-core       dshea petersen
ghc-hspec-discover   dshea petersen
ghc-http-client      qulogic
ghc-http-client-openssl petersen
ghc-http-client-restricted qulogic
ghc-http-client-tls  qulogic
ghc-lens-aeson       dshea
ghc-monad-logger     petersen
ghc-protolude        petersen
ghc-relude           petersen
ghc-repline          petersen
ghc-rio              petersen
ghc-shakespeare      petersen
ghc-streaming-commons petersen
ghc-th-abstraction   qulogic
ghc-typed-process    petersen
ghc-unliftio         petersen
ghc-vector-builder   qulogic
ghc-wai-app-static   qulogic
ghc-warp-tls         qulogic
ghc-yesod            petersen
ghc-yesod-core       petersen
ghc-yesod-form       petersen
ghc-yesod-persistent petersen
ghdl                 sailer
gif2png              jonathanspw
gifticlib            ankursinha ignatenkobrain
gimp-paint-studio    luya
gimp-save-for-web    design-sw luya
gimp-separate+       hanecak
gimpfx-foundry       luya
gio-sharp            tpokorra
git-archive-all      hobbes1069
git-evtag            ignatenkobrain walters
git-extras           besser82 sergiomb vascom
git-publish          stefanha
git-secret           gombosg
git-time-metric      qulogic
git-up               ekohl
gitjacker            fab
gitlint              skitt
giver                spot
gkeyfile-sharp       tpokorra
gl2ps                ellert rathann
glade                kalev
glew                 ajax jexposit orion
glibd                ngompa
glide                jchaloup
glm                  muep orion
glog                 jonathanspw stevetraylen
glues                raphgro
glyph-keeper         jwrdegoede
glyphicons-halflings-fonts kni
gmailctl             fuller
gmime                alexl caolanm pwalter rhughes rstrode
gmm                  rdieter
gnat-srpm-macros     landgraf rombobeorn
gnome-builder        amigadave ignatenkobrain
gnome-desktop-sharp  laxathom tpokorra
gnome-desktop-testing mclasen walters
gnome-dictionary     mclasen
gnome-hexgl          alexl atim
gnome-js-common      salimma
gnome-keyring-sharp  salimma tpokorra
gnome-klotski        kalev
gnome-music          kalev
gnome-nettool        alexl caolanm kalev rhughes rstrode
gnome-robots         kalev
gnome-sharp          caolanm laxathom rhughes rstrode tpokorra
gnome-shell-extension-gamemode frantisekz ngompa
gnome-shell-theme-flat-remix atim
gnome-subtitles      belegdol
gnome-system-log     mclasen rstrode
gnome-tetravex       kalev
gnome-themes-extra   pwalter
gnome-valgrind-session ferdnyc
gnulib               moceap
gnumeric             aarem huzaifas
gnupg-pkcs11-scd     mikep
gnuplot              jkucera pcahyna
go-bindata           eclipseo jchaloup
go2rpm               alexsaezm eclipseo
goaltdns             fab
goddard-backgrounds  q5sys
godot                akien
godotenv             athoscr
gojq                 mikelo2
golang-bazil-fuse    jchaloup mikelo2
golang-bitbucket-ww-goautoneg jchaloup mikelo2
golang-etcd-bbolt    mikelo2
golang-github-a8m-tree jchaloup mikelo2
golang-github-aalpar-deheap mikelo2
golang-github-aaronjanse-pty fab
golang-github-acarl005-stripansi fab
golang-github-aclements-gg alexsaezm jchaloup
golang-github-aclements-moremath eclipseo jchaloup
golang-github-acme-lego eclipseo
golang-github-acobaugh-osrelease harrymichal
golang-github-adrg-xdg linkdupont
golang-github-adrianmo-nmea fab
golang-github-aead-chacha20 eclipseo jchaloup
golang-github-aead-poly1305 eclipseo jchaloup
golang-github-afex-hystrix alexsaezm
golang-github-ajstarks-svgo eclipseo jchaloup
golang-github-akamensky-argparse fab
golang-github-akavel-rsrc eclipseo
golang-github-alecaivazis-survey-2 mikelo2
golang-github-alecthomas-assert felixonmars qulogic zsun
golang-github-alecthomas-chroma athoscr
golang-github-alecthomas-colour felixonmars qulogic zsun
golang-github-alecthomas-kong qulogic
golang-github-alecthomas-kong-hcl mikelo2
golang-github-alecthomas-repr felixonmars qulogic zsun
golang-github-alecthomas-units felixonmars zsun
golang-github-alexflint-arg fab
golang-github-alexflint-filemutex mikelo2
golang-github-aliyun-oss-sdk bdperkin eclipseo
golang-github-aliyun-ossutil bdperkin
golang-github-alyu-configparser bdperkin
golang-github-andrew-d-termutil fab
golang-github-andreyvit-diff gotmax23
golang-github-andybalholm-brotli alexsaezm
golang-github-andybalholm-cascadia athoscr
golang-github-anmitsu-shlex jchaloup mikelo2
golang-github-antchfx-htmlquery eclipseo
golang-github-antchfx-jsonquery fab
golang-github-antchfx-xmlquery mikelo2
golang-github-antchfx-xpath fab
golang-github-antihax-optional mikelo2
golang-github-apex-logs mikep
golang-github-armon-circbuf jchaloup mikelo2
golang-github-armon-gomdb eclipseo jchaloup
golang-github-armon-metrics mikelo2
golang-github-armon-radix alexsaezm
golang-github-armon-socks5 mikelo2
golang-github-artyom-mtab mikelo2
golang-github-aryann-difflib fab
golang-github-asaskevich-eventbus fab
golang-github-asaskevich-govalidator logic
golang-github-aws-lambda mikelo2
golang-github-axgle-mahonia zsun
golang-github-aykevl-wasm qulogic
golang-github-azure-amqp mikep
golang-github-azure-amqp-common mikep
golang-github-azure-ntlmssp fab
golang-github-azure-pipeline mikelo2
golang-github-azure-sdk jcline mhayden
golang-github-azure-service-bus mikep
golang-github-azure-storage-blob mikelo2
golang-github-badoux-checkmail qulogic
golang-github-beevik-ntp fuller
golang-github-benbjohnson-clock agerstmayr nathans
golang-github-beorn7-perks jchaloup mikelo2
golang-github-bep-debounce qulogic
golang-github-bep-gitmap athoscr fale
golang-github-bep-goat mikep
golang-github-bep-godartsass mikep
golang-github-bep-golibsass qulogic
golang-github-bep-gowebp mikep
golang-github-bep-overlayfs mikep
golang-github-bep-tmc qulogic
golang-github-bep-workers mikep
golang-github-bettercap-gatt fab
golang-github-bettercap-readline fab
golang-github-bgentry-netrc thebeanogamer
golang-github-bgentry-speakeasy alexsaezm jchaloup
golang-github-bifurcation-mint eclipseo
golang-github-bitly-simplejson jchaloup mikelo2
golang-github-bits-and-blooms-bitset dcavalca
golang-github-blakesmith-ar qulogic
golang-github-blang-semver mikelo2
golang-github-bmatcuk-doublestar-3 eclipseo
golang-github-bmizerany-assert jchaloup mikelo2
golang-github-bobesa-domain-util fab
golang-github-boombuler-barcode logic
golang-github-bradenhilton-cityhash qulogic
golang-github-bradfitz-iter eclipseo
golang-github-bruth-assert saluki
golang-github-bshuster-repo-logrus-logstash-hook mikelo2
golang-github-bsphere-le alexsaezm
golang-github-buengese-sgzip mikelo2
golang-github-bugsnag alexsaezm
golang-github-bugsnag-panicwrap alexsaezm jchaloup
golang-github-burntsushi-graphics eclipseo
golang-github-burntsushi-locker qulogic
golang-github-burntsushi-toml dfateyev mikelo2
golang-github-burntsushi-toml-test mikelo2
golang-github-burntsushi-xdg fab
golang-github-burntsushi-xgb eclipseo
golang-github-c-bata-prompt eclipseo
golang-github-cactus-statsd-client alexsaezm
golang-github-calebcase-tmpfile mikelo2
golang-github-caspr-io-yamlpath fale
golang-github-cenkalti-backoff fab jchaloup
golang-github-cention-sany-utf7 eclipseo
golang-github-cespare-xxhash fab
golang-github-chai2010-gettext eclipseo
golang-github-chappjc-logrus-prefix dcavalca
golang-github-charmbracelet-glamour mikelo2
golang-github-charmbracelet-lipgloss mikelo2
golang-github-cheekybits-is zsun
golang-github-chi    mikelo2
golang-github-chi-cors yanqiyu
golang-github-chi-render yanqiyu
golang-github-chris-ramon-douceur eclipseo
golang-github-christrenkamp-goxpath fab
golang-github-chromedp fab
golang-github-chromedp-cdproto fab
golang-github-chromedp-sysutil eclipseo
golang-github-chzyer-test jchaloup mikelo2
golang-github-cilium-ebpf alexsaezm
golang-github-circonus-labs-apiclient mikelo2
golang-github-circonus-labs-circonusllhist mikelo2
golang-github-circonus-labs-gometrics mikelo2
golang-github-clbanning-mxj mikelo2
golang-github-clbanning-x2j mikelo2
golang-github-cli-gh mikelo2
golang-github-cli-oauth mikelo2
golang-github-cli-shurcool-graphql jdoss
golang-github-clickhouse dcavalca
golang-github-client9-plaintext eclipseo
golang-github-cmd    eclipseo
golang-github-cnf-structhash mikelo2
golang-github-cockroachdb-pebble eclipseo
golang-github-cockroachdb-sentry alexsaezm
golang-github-codegangsta-inject mikelo2
golang-github-colinmarc-hdfs-2 mikelo2
golang-github-common-nighthawk-figure fab
golang-github-coreos-ioprogress eclipseo
golang-github-corpix-uarand mikelo2
golang-github-cosiner-argv qulogic
golang-github-cpu-goacmedns eclipseo
golang-github-cpuguy83-md2man dfateyev mikelo2
golang-github-creack-goselect qulogic
golang-github-creack-pty alexsaezm
golang-github-crossdock mikelo2
golang-github-cucumber-gherkin eclipseo
golang-github-cucumber-godog eclipseo
golang-github-cucumber-messages eclipseo
golang-github-cupcake-rdb eclipseo
golang-github-cyberdelia-metrics-graphite fale
golang-github-d2g-dhcp4 alexsaezm
golang-github-d5-tengo-2 fab
golang-github-daaku-zipexe eclipseo
golang-github-danwakefield-fnmatch athoscr
golang-github-data-dog-sqlmock dcavalca
golang-github-datadog alexsaezm
golang-github-datadog-golz4 dcavalca
golang-github-dave-jennifer gotmax23
golang-github-davecgh-spew mikelo2
golang-github-davecgh-xdr eclipseo
golang-github-daviddengcn-colortext eclipseo
golang-github-dchest-safefile eclipseo jchaloup
golang-github-deckarep-set alexsaezm
golang-github-delve-liner alexsaezm fuller
golang-github-denisbrodbeck-machineid dcavalca
golang-github-denisenkom-mssqldb mikelo2
golang-github-dennwc-varint alexsaezm
golang-github-derekparker-trie fuller
golang-github-devigned-tab mikep
golang-github-dghubble-oauth1 fab
golang-github-dghubble-sling fab
golang-github-dghubble-twitter fab
golang-github-dgrijalva-jwt alexsaezm
golang-github-direnv-dotenv logic
golang-github-disintegration-gift mikep
golang-github-disintegration-imaging felixonmars zsun
golang-github-djherbis-atime qulogic
golang-github-djherbis-buffer eclipseo
golang-github-djherbis-nio eclipseo
golang-github-djherbis-times jchaloup mikelo2
golang-github-dlclark-regexp2 athoscr
golang-github-dnaeon-vcr alexsaezm jchaloup
golang-github-dnsimple eclipseo
golang-github-docker-credential-helpers alexsaezm
golang-github-docker-go mikelo2
golang-github-docker-slim-uilive eclipseo
golang-github-docker-slim-uiprogress eclipseo
golang-github-docker-slim-update eclipseo
golang-github-docopt mikelo2
golang-github-dop251-scsu mikelo2
golang-github-dpotapov-spnego qulogic
golang-github-dropbox-sdk-unofficial jchaloup mikelo2
golang-github-droundy-goopt bdperkin
golang-github-dsnet-compress rathann
golang-github-dsnet-golib rathann
golang-github-dustin-humanize mikelo2
golang-github-dvsekhvalnov-jose2go jchaloup mikelo2
golang-github-eapache-queue mikelo2
golang-github-eapache-resiliency mikelo2
golang-github-eapache-xerial-snappy mikelo2
golang-github-eclesh-welford abulimov dcavalca
golang-github-eclipse-paho-mqtt linkdupont
golang-github-edsrzf-mmap alexsaezm
golang-github-eknkc-amber athoscr
golang-github-elazarl-bindata-assetfs eclipseo
golang-github-elazarl-goproxy mikelo2
golang-github-elithrar-simple-scrypt saluki
golang-github-ema-qdisc fuller
golang-github-emersion-imap eclipseo
golang-github-emersion-imap-sortthread eclipseo
golang-github-emersion-maildir eclipseo
golang-github-emersion-message eclipseo
golang-github-emersion-pgpmail eclipseo
golang-github-emersion-sasl eclipseo
golang-github-emersion-smtp eclipseo
golang-github-emersion-textwrapper eclipseo
golang-github-emicklei-restful alexsaezm
golang-github-emirpasic-gods rathann
golang-github-erikstmartin-testdb mikelo2
golang-github-errors alexsaezm
golang-github-evanw-esbuild mikep
golang-github-evanw-esbuild-0.8.20 mikep
golang-github-exponent-io-jsonpath eclipseo
golang-github-facebookgo-clock eclipseo
golang-github-facebookgo-subset dcavalca
golang-github-facebookincubator-contest dcavalca
golang-github-facebookincubator-dhcplb dcavalca
golang-github-fanliao-promise dcavalca
golang-github-fatih-camelcase eclipseo
golang-github-fatih-color mrunge
golang-github-fatih-structs logic
golang-github-fd0-termstatus fab
golang-github-felixge-httpsnoop mikelo2
golang-github-fernet alexsaezm
golang-github-flynn-json5 eclipseo jchaloup
golang-github-flynn-noise fale
golang-github-fogleman-gg cheeselee zsun
golang-github-form3tech-oss-jwt alexsaezm
golang-github-fortytw2-leaktest athoscr
golang-github-francoispqt-gojay mikelo2
golang-github-franela-goblin mikelo2
golang-github-franela-goreq mikelo2
golang-github-frankban-quicktest alexsaezm
golang-github-fsouza-dockerclient eclipseo
golang-github-fvbommel-sortorder sergiomb
golang-github-fvbommel-util eclipseo
golang-github-gabriel-vasile-mimetype mikelo2
golang-github-geertjohan-incremental eclipseo
golang-github-gehirninc-crypt bdperkin
golang-github-genuinetools-pkg eclipseo
golang-github-getkin-kin-openapi bdperkin mikep
golang-github-ghodss-yaml jchaloup mikelo2
golang-github-gin-contrib-sse mikelo2
golang-github-gin-gonic alexsaezm
golang-github-git-gcfg mikelo2
golang-github-git-lfs-gitobj-2 qulogic
golang-github-git-lfs-netrc qulogic
golang-github-git-lfs-pktline qulogic
golang-github-git-lfs-wildmatch-2 qulogic
golang-github-glendc-gopher-json eclipseo
golang-github-globalsign-mgo alexsaezm jchaloup
golang-github-gobuffalo-envy athoscr
golang-github-gobuffalo-flect qulogic
golang-github-gobuffalo-here eclipseo
golang-github-gobuffalo-logger mikelo2
golang-github-gobuffalo-packd mikelo2
golang-github-gobuffalo-packr mikelo2
golang-github-gobwas-glob athoscr
golang-github-gobwas-httphead fab
golang-github-gobwas-pool fab
golang-github-gobwas-ws fab
golang-github-goccy-json eclipseo
golang-github-gocql  mikelo2
golang-github-gofrs-uuid alexsaezm
golang-github-gogs-chardet eclipseo
golang-github-gohugoio-locales mikep
golang-github-gohugoio-localescompressed mikep
golang-github-gohugoio-testmodbuilder qulogic
golang-github-gojuno-minimock dcavalca
golang-github-gokyle-twofactor fale
golang-github-golangci-lint-1 obudai
golang-github-golangplus-bytes qulogic
golang-github-golangplus-fmt qulogic
golang-github-golangplus-testing qulogic
golang-github-gomarkdown-markdown eclipseo
golang-github-google-goterm dcavalca
golang-github-google-pprof jchaloup mikelo2
golang-github-google-querystring mikelo2
golang-github-gorilla-csrf mikelo2
golang-github-gorilla-css athoscr
golang-github-gorilla-handlers jchaloup mikelo2
golang-github-gorilla-schema alexsaezm
golang-github-gorilla-securecookie jchaloup mikelo2
golang-github-gorilla-sessions jchaloup mikelo2
golang-github-gorp-3 dcavalca
golang-github-gosexy-gettext zyga
golang-github-gosuri-uilive dcavalca
golang-github-graph-gophers-graphql fab
golang-github-graylog2-gelf alexsaezm
golang-github-gregjones-httpcache jchaloup mikelo2
golang-github-grpc-ecosystem-gateway alexsaezm
golang-github-grpc-ecosystem-gateway-2 fale
golang-github-gucumber eclipseo
golang-github-guregu-null eclipseo
golang-github-h2non-parth mikelo2
golang-github-hailocab-hostpool mikelo2
golang-github-hairyhenderson-codeowners mikep
golang-github-hako-durafmt qulogic
golang-github-hanwen-fuse sergiomb
golang-github-harrymichal-version harrymichal
golang-github-hashicorp-hclog alexsaezm
golang-github-hashicorp-mdns jchaloup mikelo2
golang-github-hashicorp-msgpack fuller
golang-github-hashicorp-syslog dcavalca
golang-github-hdrhistogram mikelo2
golang-github-henvic-httpretty fab
golang-github-hexdigest-gowrap dcavalca
golang-github-hhrutter-lzw fale
golang-github-hhrutter-tiff fale
golang-github-hinshun-vt10x jdoss mikelo2
golang-github-hodgesds-perf-utils fuller
golang-github-hsiafan-glow fab
golang-github-hsiafan-vlog fab
golang-github-huandu-xstrings mikelo2
golang-github-hub    jaymzh
golang-github-hudl-fargo alexsaezm
golang-github-hugelgupf-socketpair dcavalca
golang-github-hydrogen18-memlistener alexsaezm
golang-github-ianbruene-difflib dfateyev
golang-github-iancoleman-strcase alexsaezm
golang-github-ianlancetaylor-demangle jchaloup mikelo2
golang-github-iguanesolutions-systemd-5 mikelo2
golang-github-inconshreveable-log15 agerstmayr nathans
golang-github-influxdata-influxdb1-client mikelo2
golang-github-insomniacslk-termhook dcavalca
golang-github-insomniacslk-xjson dcavalca
golang-github-itchyny-timefmt mikelo2
golang-github-j-keck-arping eclipseo
golang-github-jackc-chunkreader-2 linkdupont
golang-github-jackc-pgconn eclipseo
golang-github-jackc-pgio eclipseo
golang-github-jackc-pgpassfile eclipseo
golang-github-jackc-pgproto3 eclipseo
golang-github-jackc-pgservicefile eclipseo
golang-github-jackc-pgtype eclipseo
golang-github-jackc-pgx eclipseo
golang-github-jackc-puddle eclipseo
golang-github-jarcoal-httpmock mikelo2
golang-github-jawher-mow-cli eclipseo
golang-github-jbenet-context rathann
golang-github-jdkato-prose athoscr
golang-github-jedisct1-clocksmith eclipseo jchaloup
golang-github-jedisct1-dlog eclipseo jchaloup
golang-github-jedisct1-dnsstamps eclipseo jchaloup
golang-github-jedisct1-hpke-compact eclipseo
golang-github-jedisct1-minisign eclipseo jchaloup
golang-github-jedisct1-xsecretbox eclipseo jchaloup
golang-github-jeffail-gabs mikelo2
golang-github-jessevdk-flags mikelo2
golang-github-jhillyerd-enmime eclipseo
golang-github-jinzhu-gorm mikelo2
golang-github-jinzhu-inflection mikelo2
golang-github-jinzhu-now qulogic
golang-github-jlaffaye-ftp jchaloup mikelo2
golang-github-jmhodges-clock alexsaezm
golang-github-jmoiron-sqlx alexsaezm
golang-github-joho-godotenv fuller
golang-github-josharian-intern mikelo2
golang-github-jpillora-ansi fab
golang-github-jpillora-backoff fab
golang-github-jpillora-requestlog fab
golang-github-jpillora-sizestr fab
golang-github-jpillora-tld fab
golang-github-jsimonetti-pwscheme fale
golang-github-jsimonetti-rtnetlink fuller
golang-github-json-iterator mikelo2
golang-github-jtolds-gls jchaloup mikelo2
golang-github-julienschmidt-httprouter jchaloup mikelo2
golang-github-jwt    gundersanne obudai
golang-github-jwt-4  alexsaezm
golang-github-jzelinskie-whirlpool mikelo2
golang-github-k-sone-critbitgo eclipseo jchaloup
golang-github-k0kubun-ansi mikelo2
golang-github-kalafut-imohash dcavalca
golang-github-kardianos-osext fuller
golang-github-kardianos-service jchaloup mhayden
golang-github-karrick-godirwalk mikelo2
golang-github-karrick-golf mikelo2
golang-github-kballard-shellquote mikelo2
golang-github-kelvins-sunrisesunset cheeselee
golang-github-kennygrant-sanitize eclipseo
golang-github-kevinburke-ssh-config rathann
golang-github-kisielk-sqlstruct mikelo2
golang-github-kisom-goutils eclipseo
golang-github-kit    alexsaezm
golang-github-kit-log alexsaezm
golang-github-klauspost-cpuid mrunge
golang-github-klauspost-pgzip dcavalca
golang-github-knetic-govaluate alexsaezm
golang-github-kolo-xmlrpc alexsaezm
golang-github-koofr-httpclient mikelo2
golang-github-koofr-koofrclient mikelo2
golang-github-koppacetic-gpsd eclipseo
golang-github-kr-binarydist fab
golang-github-kr-fs  jchaloup mikelo2
golang-github-kr-pretty alexsaezm jchaloup
golang-github-kr-pty jchaloup mikelo2
golang-github-kr-text alexsaezm jchaloup
golang-github-kyoh86-xdg eclipseo
golang-github-kyokomi-emoji athoscr olem
golang-github-labbsr0x-bindman-dns-webhook eclipseo
golang-github-labbsr0x-goh eclipseo
golang-github-labstack-echo-4 mikelo2
golang-github-labstack-gommon obudai
golang-github-lair-framework-nmap fab
golang-github-lann-builder dcavalca
golang-github-lann-ps dcavalca
golang-github-ledisdb eclipseo
golang-github-leodido-urn mikelo2
golang-github-lestrrat-apache-logformat bdperkin
golang-github-lestrrat-envload bdperkin
golang-github-lestrrat-strftime bdperkin
golang-github-leveldb eclipseo
golang-github-liamg-scout fab
golang-github-liamg-tml fab
golang-github-lib-pq mikelo2
golang-github-libgit2-git2go qulogic
golang-github-liggitt-tabwriter eclipseo
golang-github-linode-linodego mikep
golang-github-lithammer-dedent eclipseo
golang-github-lithammer-fuzzysearch atim mikelo2
golang-github-lofanmi-pinyin cheeselee
golang-github-logfmt alexsaezm
golang-github-logrusorgru-aurora fab
golang-github-lucasb-eyer-colorful qulogic
golang-github-lunixbochs-vtclean atim
golang-github-magiconair-properties mikelo2
golang-github-mailru-easyjson mikelo2
golang-github-makenowjust-heredoc mikelo2
golang-github-malfunkt-iprange fab
golang-github-manifoldco-promptui eclipseo
golang-github-marcinbor85-gohex qulogic
golang-github-markbates-errx mikelo2
golang-github-markbates-oncer mikelo2
golang-github-markbates-pkger eclipseo
golang-github-markbates-safe mikelo2
golang-github-marten-seemann-qpack mikelo2
golang-github-martinhoefling-goxkcdpwgen fale
golang-github-martini alexsaezm
golang-github-masterminds-semver fuller
golang-github-masterminds-semver-1 eclipseo
golang-github-masterminds-sprig alexsaezm
golang-github-masterminds-vcs dcavalca
golang-github-matryer-try qulogic
golang-github-mattn-colorable mikelo2
golang-github-mattn-ieproxy mikelo2
golang-github-mattn-isatty mikelo2
golang-github-mattn-pointer v02460
golang-github-mattn-runewidth mikelo2
golang-github-mattn-shellwords qulogic
golang-github-mattn-sqlite3 mikelo2
golang-github-mattn-tty fale
golang-github-mattn-xmlrpc fuller
golang-github-max-sum-base32768 mikelo2
golang-github-mbndr-figlet4go atim
golang-github-mdlayher-dhcp6 fab
golang-github-mdlayher-ethernet dcavalca
golang-github-mdlayher-genetlink fuller
golang-github-mdlayher-netlink dcavalca
golang-github-mdlayher-raw dcavalca
golang-github-mdlayher-wifi copperi
golang-github-mesos  eclipseo
golang-github-mgutz-ansi logic
golang-github-mgutz-logxi logic
golang-github-mholt-archiver rathann
golang-github-michaelklishin-rabbit-hole logic
golang-github-miekg-pkcs11 alexsaezm
golang-github-mikioh-ipaddr eclipseo
golang-github-miolini-datacounter eclipseo
golang-github-mitchellh-colorstring mikelo2
golang-github-mitchellh-copystructure alexsaezm
golang-github-mitchellh-hashstructure qulogic
golang-github-mitchellh-hashstructure-2 fuller
golang-github-mitchellh-homedir mikelo2
golang-github-mitchellh-mapstructure jchaloup mikelo2
golang-github-mitchellh-ps mikelo2
golang-github-mitchellh-reflectwalk alexsaezm
golang-github-mitchellh-testing-interface eclipseo
golang-github-mitchellh-vnc eclipseo
golang-github-mitchellh-wordwrap mikelo2
golang-github-mmarkdown-mmark eclipseo
golang-github-mndrix-tap eclipseo
golang-github-mohae-deepcopy alexsaezm
golang-github-montanaflynn-stats athoscr
golang-github-morikuni-aec alexsaezm
golang-github-mozillazg-pinyin cheeselee
golang-github-mr-tron-base58 eclipseo
golang-github-mreiferson-httpclient mikelo2
golang-github-mroach-rom64 dcavalca
golang-github-msprev-fzf-bibtex dmoerner
golang-github-msteinert-pam felixonmars zsun
golang-github-muesli-crunchy fab
golang-github-muesli-reflow jdoss mikelo2
golang-github-muesli-smartcrop athoscr
golang-github-muesli-termenv jdoss mikelo2
golang-github-muhammadmuzzammil1998-jsonc mikelo2
golang-github-multiformats-base32 eclipseo
golang-github-multiformats-base36 eclipseo
golang-github-multiformats-multibase eclipseo
golang-github-mvo5-goconfigparser zyga
golang-github-mvo5-uboot eclipseo
golang-github-mxk-flowrate mikelo2
golang-github-namedotcom eclipseo
golang-github-naoina-stringutil eclipseo
golang-github-naoina-toml eclipseo
golang-github-natefinch-pie mikelo2
golang-github-nathanaelle-syslog5424-2 bdperkin
golang-github-nbutton23-zxcvbn fab
golang-github-ncw-acd jchaloup mikelo2
golang-github-ncw-swift alexsaezm jchaloup
golang-github-ncw-swift-2 mikelo2
golang-github-nfnt-resize felixonmars zsun
golang-github-nicksnyder-i18n qulogic
golang-github-nicksnyder-i18n-2 qulogic
golang-github-nightlyone-lockfile eclipseo
golang-github-niklasfasching-org qulogic
golang-github-npat-efault-poller fab
golang-github-nrdcg-dnspod eclipseo
golang-github-nrdcg-goinwx eclipseo
golang-github-ns3777k-shodan fab
golang-github-nsf-termbox eclipseo jchaloup
golang-github-nu7hatch-gouuid eclipseo
golang-github-nwaples-rardecode rathann
golang-github-nwidger-jsoncolor eclipseo jchaloup
golang-github-nxadm-tail mikelo2
golang-github-olekukonko-tablewriter mikelo2
golang-github-olekukonko-ts eclipseo
golang-github-olivere-env fab
golang-github-onsi-ginkgo jchaloup mikelo2
golang-github-onsi-gomega jchaloup mikelo2
golang-github-op-logging mikelo2
golang-github-openapi-inflect dcavalca
golang-github-opentracing-basictracer eclipseo
golang-github-oschwald-geoip2 eclipseo
golang-github-oschwald-maxminddb eclipseo
golang-github-otiai10-copy mikelo2
golang-github-otiai10-mint mikelo2
golang-github-owenrumney-sarif mikelo2
golang-github-pact-foundation eclipseo
golang-github-parnurzeal-gorequest fab
golang-github-path-network-mmproxy dcavalca
golang-github-patrickmn-cache mikelo2
golang-github-pborman-getopt mikelo2
golang-github-pborman-uuid eclipseo
golang-github-pelletier-toml-2 mikep
golang-github-performancecopilot-speed alexsaezm
golang-github-peterbourgon-diskv jchaloup mikelo2
golang-github-peterh-liner eclipseo
golang-github-peterhellberg-link eclipseo
golang-github-pgaskin-koboutils dcavalca
golang-github-phayes-freeport fab
golang-github-phayes-permbits alexsaezm
golang-github-philhofer-fwd mikelo2
golang-github-pierrec-cmdflag mikelo2
golang-github-pierrre-geohash eclipseo
golang-github-pingcap-errors alexsaezm
golang-github-pkg-browser mikelo2
golang-github-pkg-diff dcavalca
golang-github-pkg-term dcavalca
golang-github-playground-assert-2 mikelo2
golang-github-playground-locales mikelo2
golang-github-playground-universal-translator mikelo2
golang-github-playground-validator-10 alexsaezm
golang-github-pmezard-difflib mikelo2
golang-github-posener-complete alexsaezm
golang-github-posener-complete-2 eclipseo
golang-github-powerman-check eclipseo
golang-github-powerman-deepequal eclipseo
golang-github-pressly-goose dcavalca
golang-github-projectdiscovery-blackrock mikelo2
golang-github-projectdiscovery-cdncheck fab
golang-github-projectdiscovery-chaos-client mikelo2
golang-github-projectdiscovery-clistats mikelo2
golang-github-projectdiscovery-fdmax fab
golang-github-projectdiscovery-fileutil mikelo2
golang-github-projectdiscovery-goflags mikelo2
golang-github-projectdiscovery-gologger fab
golang-github-projectdiscovery-hmap mikelo2
golang-github-projectdiscovery-httputil mikelo2
golang-github-projectdiscovery-httpx fab
golang-github-projectdiscovery-ipranger mikelo2
golang-github-projectdiscovery-iputil mikelo2
golang-github-projectdiscovery-mapcidr fab mikelo2
golang-github-projectdiscovery-reflectutil mikelo2
golang-github-projectdiscovery-retryabledns fab mikelo2
golang-github-projectdiscovery-sliceutil mikelo2
golang-github-projectdiscovery-stringsutil mikelo2
golang-github-puerkitobio-purell alexsaezm
golang-github-puerkitobio-urlesc alexsaezm
golang-github-putdotio-putio mikelo2
golang-github-quay-goval-parser eclipseo
golang-github-racingmars-go3270 dcavalca
golang-github-radovskyb-watcher fuller
golang-github-rasky-xdr mikelo2
golang-github-rclone-ftp mikelo2
golang-github-rcrowley-metrics alexsaezm
golang-github-redteampentesting-monsoon fab
golang-github-reiver-oi fab
golang-github-reiver-telnet fab
golang-github-remeh-sizedwaitgroup mikelo2
golang-github-remyoudompheng-bigfft eclipseo jchaloup
golang-github-restic-chunker saluki
golang-github-resty  fab
golang-github-revel  alexsaezm
golang-github-revel-log15 alexsaezm
golang-github-revel-pathtree alexsaezm
golang-github-rfjakob-eme jchaloup mikelo2
golang-github-rican7-retry eclipseo
golang-github-rivo-tview mikelo2
golang-github-rivo-uniseg jdoss
golang-github-riywo-loginshell eclipseo
golang-github-rjeczalik-notify linkdupont
golang-github-robertkrimen-otto eclipseo jchaloup
golang-github-rodaine-hclencoder bdperkin
golang-github-rogpeppe-fastuuid alexsaezm
golang-github-rs-cors alexsaezm
golang-github-rs-xid mikelo2
golang-github-rs-zerolog mikelo2
golang-github-rubenv-sql-migrate dcavalca
golang-github-rubyist-tracerx fuller
golang-github-rwcarlsen-goexif mikep
golang-github-ryanuber-columnize alexsaezm jchaloup
golang-github-ryanuber-glob eclipseo
golang-github-sabhiram-gitignore eclipseo
golang-github-sagikazarmark-crypt mikelo2
golang-github-saintfish-chardet fab
golang-github-samuel-zookeeper eclipseo
golang-github-sanity-io-litter qulogic
golang-github-saracen-walker qulogic
golang-github-schollz-cli-2 dcavalca
golang-github-schollz-closestmatch fale
golang-github-schollz-croc dcavalca
golang-github-schollz-logger dcavalca
golang-github-schollz-mnemonicode dcavalca
golang-github-schollz-pake-3 dcavalca
golang-github-schollz-peerdiscovery dcavalca
golang-github-schollz-progressbar-2 dcavalca
golang-github-schollz-progressbar-3 dcavalca
golang-github-sean-seed alexsaezm
golang-github-segmentio-ksuid gundersanne
golang-github-serialx-hashring alexsaezm
golang-github-sevlyar-daemon eclipseo jchaloup
golang-github-sgreben-flagvar linkdupont
golang-github-shellcode33-vm-detection fab
golang-github-shiena-ansicolor jchaloup mikelo2
golang-github-shogo82148-shuffle mikep
golang-github-shopify-logrus-bugsnag alexsaezm
golang-github-shopify-sarama alexsaezm
golang-github-shopify-toxiproxy eclipseo
golang-github-shopspring-decimal alexsaezm jchaloup
golang-github-shurcool-githubv4 mikelo2
golang-github-shurcool-graphql mikelo2
golang-github-shurcool-httpfs alexsaezm jchaloup
golang-github-shurcool-httpgzip alexsaezm jchaloup
golang-github-shurcool-vfsgen alexsaezm
golang-github-siddontang eclipseo
golang-github-siddontang-goredis eclipseo
golang-github-siddontang-rdb eclipseo
golang-github-siddontang-snappy eclipseo
golang-github-sirupsen-logrus alexsaezm
golang-github-skip2-qrcode fale
golang-github-skratchdot-open mikelo2
golang-github-smartystreets-assertions jchaloup mikelo2
golang-github-smartystreets-aws-auth eclipseo
golang-github-smartystreets-goconvey alexsaezm jchaloup
golang-github-smartystreets-gunit eclipseo
golang-github-snapcore-gettext bboozzoo zyga
golang-github-songgao-water fab
golang-github-sony-gobreaker alexsaezm
golang-github-sophaskins-efs2tar dcavalca
golang-github-soundcloud-runit fuller
golang-github-sourcegraph-annotate eclipseo jchaloup
golang-github-sourcegraph-jsonrpc2 mikelo2
golang-github-sourcegraph-syntaxhighlight eclipseo jchaloup
golang-github-spf13-cast mikelo2
golang-github-spf13-fsync athoscr fale
golang-github-spf13-jwalterweatherman qulogic
golang-github-spf13-viper mikelo2
golang-github-spyzhov-ajson eclipseo
golang-github-ssgelm-cookiejarparser qulogic
golang-github-ssor-bom eclipseo
golang-github-stack  agerstmayr nathans
golang-github-stathat alexsaezm
golang-github-stoewer-strcase alexsaezm
golang-github-streadway-amqp logic
golang-github-streadway-handy alexsaezm
golang-github-stretchr-objx fale jchaloup mikelo2
golang-github-stretchr-testify fale jchaloup mikelo2
golang-github-subosito-gotenv qulogic
golang-github-syndtr-goleveldb jchaloup mikelo2
golang-github-t3rm1n4l-mega mikelo2
golang-github-task   fuller
golang-github-tchap-patricia alexsaezm
golang-github-tdewolff-minify qulogic
golang-github-tdewolff-parse qulogic
golang-github-tdewolff-test qulogic
golang-github-teambition-rrule cheeselee
golang-github-temoto-robotstxt fab
golang-github-termie-shutil dfateyev
golang-github-test-deep eclipseo jchaloup mikelo2
golang-github-theupdateframework-notary alexsaezm
golang-github-thlib-timezone-local mikelo2
golang-github-thoas-funk alexsaezm
golang-github-thoj-ircevent eclipseo
golang-github-tidwall-pretty mikelo2
golang-github-tinylib-msgp alexsaezm
golang-github-tj-assert mikep
golang-github-tj-buffer mikep
golang-github-tj-spin mikep
golang-github-tmc-grpc-websocket-proxy alexsaezm
golang-github-tomasen-realip alexsaezm
golang-github-tomnomnom-linkheader fab
golang-github-tomnomnom-rawhttp fab
golang-github-tomnomnom-xtermcolor atim
golang-github-tonistiigi-actions-cache alexsaezm
golang-github-tonistiigi-fsutil alexsaezm
golang-github-tonistiigi-rosetta sergiomb
golang-github-tonistiigi-units alexsaezm
golang-github-tonistiigi-vt100 alexsaezm
golang-github-transip-gotransip eclipseo
golang-github-tscholl2-siec dcavalca
golang-github-ttacon-chalk alexsaezm
golang-github-tv42-httpunix mikelo2
golang-github-twinj-uuid alexsaezm
golang-github-twmb-murmur3 dcavalca
golang-github-twpayne-pinentry laiot
golang-github-twpayne-waypoint eclipseo
golang-github-u-root-iscsinl dcavalca
golang-github-uber-athenadriver eclipseo
golang-github-uber-tally alexsaezm
golang-github-ugorji alexsaezm
golang-github-ulikunitz-xz rathann
golang-github-urfave-cli alexsaezm
golang-github-urfave-cli-2 anthr76 nathans
golang-github-urfave-negroni alexsaezm
golang-github-valyala-bytebufferpool alexsaezm
golang-github-valyala-fasthttp fab
golang-github-valyala-fasttemplate alexsaezm
golang-github-valyala-tcplisten fab
golang-github-vincent-petithory-dataurl blowry
golang-github-vividcortex-ewma jchaloup mikelo2
golang-github-vividcortex-gohistogram alexsaezm
golang-github-vividcortex-mysqlerr agerstmayr nathans saluki
golang-github-vivint-infectious mikelo2
golang-github-vtolstov-ioctl dcavalca
golang-github-weppos-publicsuffix mikelo2
golang-github-x-cray-logrus-prefixed-formatter dcavalca
golang-github-xeonx-timeago alexsaezm
golang-github-xi2-xz dcavalca
golang-github-xiang90-probing alexsaezm jchaloup
golang-github-xlab-handysort saluki
golang-github-xlab-treeprint alexsaezm
golang-github-xlzd-gotp mikelo2
golang-github-xo-terminfo eclipseo
golang-github-xordataexchange-crypt eclipseo
golang-github-xrash-smetrics mikelo2
golang-github-yl2chen-cidranger fab
golang-github-youmark-pkcs8 mikelo2
golang-github-yudai-golcs agerstmayr nathans
golang-github-yuin-goldmark qulogic
golang-github-yuin-goldmark-emoji mikelo2
golang-github-yuin-gopher-lua eclipseo jchaloup
golang-github-yvasiyarov-gorelic alexsaezm
golang-github-yvasiyarov-newrelic-platform alexsaezm
golang-github-zclconf-cty mikelo2
golang-github-zeebo-errs mikelo2
golang-github-ziutek-mymysql dcavalca
golang-github-ziutek-telnet dcavalca
golang-github-zookeeper-zk alexsaezm
golang-github-zyedidia-glob eclipseo jchaloup
golang-github-zyedidia-highlight atim
golang-github-zyedidia-pty eclipseo jchaloup
golang-github-zyedidia-terminal eclipseo jchaloup
golang-gitlab-commonmark-linkify eclipseo
golang-gitlab-esr-fqme dfateyev
golang-gitlab-yawning-utls eclipseo
golang-goftp-server  mikelo2
golang-gonum-1       alexsaezm
golang-gopkg-alecthomas-kingpin-2 fuller
golang-gopkg-asn1-ber-1 eclipseo
golang-gopkg-check-1 mikelo2
golang-gopkg-cheggaaa-pb-1 alexsaezm
golang-gopkg-errgo-2 dcavalca
golang-gopkg-gcfg-1  alexsaezm
golang-gopkg-gorp-1  dcavalca
golang-gopkg-h2non-gock-1 mikelo2
golang-gopkg-inf-0   mikelo2
golang-gopkg-logex-1 mikelo2
golang-gopkg-macaroon-1 eclipseo
golang-gopkg-mgo-2   eclipseo
golang-gopkg-natefinch-lumberjack-2 alexsaezm jchaloup
golang-gopkg-neurosnap-sentences-1 mikep
golang-gopkg-olivere-elastic-2 eclipseo
golang-gopkg-op-logging-1 gotmax23 jrische
golang-gopkg-pipe-2  jchaloup mikep
golang-gopkg-readline-1 alexsaezm jchaloup
golang-gopkg-redis-6 alexsaezm
golang-gopkg-robfig-cron-3 fale
golang-gopkg-russross-blackfriday-1 alexsaezm
golang-gopkg-russross-blackfriday-2 alexsaezm dfateyev
golang-gopkg-tylerb-is-1 dcavalca
golang-gopkg-warnings-0 mikelo2
golang-gopkg-yaml-1  mikelo2
golang-gorm          eclipseo
golang-jaytaylor-html2text eclipseo
golang-moul-http2curl fab
golang-mozilla-pkcs7 alexsaezm
golang-mvdan-editorconfig dcavalca
golang-mvdan-sh-3    dcavalca
golang-mvdan-xurls   alexsaezm
golang-nhooyr-websocket mikep
golang-rsc-binaryregexp alexsaezm
golang-rsc-pdf       mikelo2
golang-schwanenlied-yawning-bsaes eclipseo
golang-sourcegraph-appdash eclipseo
golang-sourcegraph-appdash-data eclipseo
golang-starlark      alexsaezm
golang-storj-drpc    mikelo2
golang-uber-atomic   mikelo2
golang-uber-automaxprocs olem
golang-uber-config   eclipseo
golang-uber-dig      eclipseo
golang-uber-fx       eclipseo
golang-uber-goleak   fab
golang-uber-multierr mikelo2
golang-uber-ratelimit mikelo2
golang-uber-zap      mikelo2
golang-x-arch        alexsaezm
golang-x-debug       alexsaezm jchaloup
golang-x-lint        alexsaezm
golang-x-mobile      alexsaezm
golang-x-perf        alexsaezm jchaloup
golang-x-term        alexsaezm
golang-x-tools       fuller qulogic
golang-x-xerrors     alexsaezm
golang-xorm-builder  eclipseo
goloris              fab
goocanvas            hguemar pwalter
goocanvas2           hguemar
gotags               jchaloup
gpick                luya
gpsim                rrankin
gqrx                 daveo jskarvad
grammalecte          melmorabity
grantlee-qt5         rdieter
gravity-beams-and-evaporating-stars suve
gretl                hannes
greybird             kevin lbazan nonamedotc
grilo-plugins        victortoso
grimmer-proggy-squaresz-fonts bojan
grimmer-proggy-tinysz-fonts bojan
grin                 terjeros
gron                 lkiesow
grpcurl              mikelo2
gsequencer           jkraehemann nonamedotc
gsmartcontrol        brouhaha vascom
gssdp                kalev
gst123               siddhesh
gstream              jwrdegoede
gstreamer-plugins-espeak chimosky wtaymans
gstreamer1-doc       wtaymans
gstreamer1-plugins-bad-free uraeus wtaymans yselkowitz
gstreamer1-vaapi     farnz wtaymans
gstreamermm          rathann
gthree               alexl atim
gti                  ib54003
gtk+extra            rrankin
gtk-murrine-engine   raveit65 robert
gtk-sharp-beans      tpokorra
gtk-sharp2           caolanm laxathom rhughes rstrode tpokorra
gtk-sharp3           tpokorra
gtk-unico-engine     melmorabity
gtk-v4l              huzaifas
gtk2                 alexl caolanm mclasen mkasik rhughes rstrode
gtk2-engines         alexl caolanm mclasen rhughes rstrode
gtkd                 cicku kalev
gtkdatabox           ework vascom
gtkhtml3             alexl caolanm rhughes rstrode trawets
gtkimageview         nphilipp
gtkmm2.4             kalev
gtksourceview3       mclasen
gtksourceview4       pwalter
gtksourceviewmm      dodji hguemar
gtts                 pbrobinson
gtts-token           pbrobinson
guayadeque           martinkg
gudev-sharp          tpokorra
guile30              tkorbar
gummi                fab
gupnp-av             kalev
gupnp-dlna           kalev
gxemul               spot
h5py                 orion stevetraylen terjeros
hakrevdns            fab
halibut              jskarvad
hawknl               jwrdegoede
hawtjni              didiksupriadi41 mizdebsk
haxe                 andyli rjones
hdf                  orion sagitter
hdf5                 ignatenkobrain orion sagitter
heimdal              abo jaltman ktdreyer
heimdall             echevemaster jorti
herbstluftwm         sham1
hexer                akasko jvanek
hibernate-jpa-2.0-api jjelen
hid4java             jonny
hikari               fnux
hiran-perizia-fonts  ankursinha
hiredis              cicku kevin
hitch                ingvar
horai-ume-fonts      kvolny
howl                 atim pwalter
hpl                  jskarvad
hsakmt               mystro256 tstellar
htmlcxx              martinkg
htmltest             qulogic
htslib               jaruga
http-parser          duck mrunge patches pwalter sgallagh vascom
http_ping            alciregi
httperf              thm
httprobe             fab
hugo                 athoscr mikep neil
hugs98               petersen
human-theme-gtk      luigifab
hw-probe             andrewponomarenko
hxtools              cicku till
hydra                rcallicotte rebus
hylafax+             faxguy
hyperrogue           dulsi
hyperscan            jtaylor
i3-gaps              defolos
i3lock               cicku defolos fale
iagno                mclasen
iaxclient            smani spot
ibm-plex-fonts       suraia
ibsim                honli
icc-profiles-basiccolor-printing2009 kwizart
icc-profiles-openicc kwizart
icecast              besser82 ixs ppisar
icecat               kengert sagitter
icestorm             brouhaha lkundrak somlo
icon                 brouhaha
id3lib               adrian amigadave
ignition-cmake       rmattes
igt-gpu-tools        airlied lyude
iguanaIR             leamas
ilmbase              kwizart rdieter
imapfilter           cicku gui1ty
imapsync             jonathanspw nb
imaptest             robert
inchi                alexpl
inertiablast         dulsi
infinipath-psm       honli
inkscape-psd         moceap
inn                  ovasik rathann
innoextract          adetiste moceap
insight              lkundrak monnerat
intel-cm-compiler    aekoroglu frantisekz
intel-compute-runtime aekoroglu frantisekz rathann
intel-gmmlib         kwizart vascom
intel-igc            aekoroglu frantisekz
intel-mediasdk       aekoroglu rathann
intel-opencl-clang   aekoroglu frantisekz
intelhex             pbrobinson
iodine               somlo
ipe                  nonamedotc
iperf                somlo
ipmctl               aekoroglu spontsle
ipmiutil             arcress
iptstate             psutter twoerner
irrlicht             orion spot
irstlm               mikep
iscan-firmware       slaanesh
isl                  dhowells jakub law
iso-country-flags    tieugene
itcl                 krege orion
itk                  krege orion
itop                 flo
iucode-tool          duck puiterwijk
iv                   ankursinha
ivtv-firmware        jwboyer kwizart
ivykis               czanik
iwd                  lkundrak
iwidgets             krege orion
iwyu                 xvitaly
iyfct                mystro256
jack-audio-connection-kit nphilipp oget rathann tartina
jack-keyboard        tartina
jack-mixer           eeickmeyer
jacoco               didiksupriadi41 jvanek
jaero                vascom
jakarta-el           mbooth
jakarta-interceptors korkeala
jakarta-saaj         didiksupriadi41 mkoncek
jakarta-server-pages korkeala
jakarta-xml-ws       didiksupriadi41
jalv                 tartina
jam                  spot
java-1.8.0-openjdk   ahughes jandrlik jerboaa jhuttana jvanek omajid pmikova
java-11-openjdk      ahughes jerboaa jvanek pmikova
java-17-openjdk      ahughes jandrlik jerboaa jvanek pmikova zzambers
java-17-openjdk-portable ahughes jandrlik jerboaa jvanek pmikova zzambers
java-latest-openjdk  ahughes jerboaa jvanek pmikova
java-latest-openjdk-portable ahughes jandrlik jerboaa jvanek pmikova zzambers
java-packaging-howto mizdebsk
jaxen                jwrdegoede mizdebsk
jbosscache-support   orphan
jc                   suve
jchardet             mbooth mizdebsk orion
jemalloc             ingvar
jericho-html         terjeros
jetty                mbooth mizdebsk
jfreechart           didiksupriadi41 lkundrak
jgoodies-common      melmorabity
jgoodies-forms       melmorabity
jgoodies-looks       melmorabity
jhead                adrian
jid                  eclipseo
jigawatts            jvanek
jmock                didiksupriadi41
jopt-simple          mbooth mizdebsk
joystick-support     bruno
jpanoramamaker       jvanek
jpcre2               rathann
js-jquery            orion patches
js-jquery-mousewheel bowlofeggs ellert
js-jquery-ui         ellert
js-jquery-ui-touch-punch ellert
js-responsive-elements bowlofeggs
jsch-agent-proxy     mbooth mizdebsk
jsmath-fonts         rdieter
json-fortran         jussilehtola
json-parser          aekoroglu fkooman
json-table           fab
jtc                  defolos
jtidy                mizdebsk spike
julia                nalimilan
julius               spot
jwm                  aekoroglu
jxrlib               smani
k4dirstat            krege
kBuild               laxathom lkundrak sergiomb
kactivities          rdieter than
kakoune              atim jkonecny
kalibrate-rtl        jskarvad
kapman               rdieter than
kasts                thunderbirdtr
kate                 rdieter than
kate4                rdieter
katomic              rdieter than
kawa                 korkeala
kblackbox            rdieter than
kblocks              rdieter than
kbounce              rdieter than
kbrickbuster         jgrulich rdieter than
kcachegrind          jgrulich rdieter
kclock               thunderbirdtr
kcolorchooser        rdieter than
kcov                 dridi
kdb                  rdieter
kde-baseapps         rdieter than
kde-filesystem       rdieter than
kde-i18n             kkofler rdieter than
kde-l10n             rdieter than
kde-runtime          jgrulich kkofler rdieter than
kde-settings         jgrulich rdieter than
kdebugsettings       rdieter
kdecoration          rdieter
kdepim4              rdieter
kdepimlibs           jgrulich rdieter than
kdialog              rdieter than
kdiamond             rdieter than
kdnssd-avahi         rdieter
kdsoap               farchord tdawson
keditbookmarks       rdieter than
keepassxc            germano mikelo2 nonamedotc
kerberoast           fab
keybinder3           kevin m4rtink
keylime              ansasaki scorreia ueno
kf5-kblog            rdieter
kf5-kdelibs4support  jgrulich rdieter than
kf5-kdesignerplugin  jgrulich rdieter than
kf5-kdewebkit        jgrulich rdieter than
kf5-khtml            jgrulich rdieter than
kf5-kirigami         rdieter
kf5-kjs              jgrulich rdieter than
kf5-kjsembed         jgrulich rdieter
kfc                  dcavalca
kfind                rdieter than
kfourinline          rdieter than
kget                 jkucera rdieter than
kgoldrunner          rdieter than
khal                 mathstuf mbaldessari
khealthcertificate   ngompa thunderbirdtr
kigo                 rdieter than
killbots             rdieter than
kiln                 eclipseo
kim-api              ellio167 junghans
kirc                 dcavalca
kiriki               rdieter than
kjumpingcube         rdieter than
klickety             rdieter than
klines               rdieter than
klt                  ankursinha jonathanspw
kmahjongg            rdieter than
kmodtool             hobbes1069 kwizart leigh123linux nvieville slaanesh
kmplayer             moceap rdieter
kmscube              ernunes
knavalbattle         rdieter than
knetwalk             rdieter than
knotes               rdieter than
koji                 kevin mikem puiterwijk
koji-containerbuild  cverna
kokkos               cz4rs junghans rberger
koko                 aleasto
kolf                 rdieter than
kollision            rdieter than
kolourpaint          rdieter than
kongress             aleasto thunderbirdtr
konqueror            rdieter than
konquest             rdieter than
kontact              rdieter than
kpat                 rdieter than
kphotoalbum          nucleo rdieter
kproperty            rdieter
kpublictransport     ngompa thunderbirdtr
kqoauth-qt5          martinkg
krdc                 rdieter than
kreport              rdieter
kreversi             rdieter than
kscreen              rdieter
kshisen              rdieter than
ksirk                rdieter than
ksnakeduel           rdieter than
kspaceduel           rdieter than
ksquares             rdieter than
kstart               ktdreyer orion stevetraylen
ksudoku              rdieter than
ktikz                melmorabity
kubrick              rdieter than
kuser                kkofler
kuserfeedback        tdawson zawertun
kvirc                nucleo
kwave                sergiomb
kwayland-server      jgrulich mkyral
kwebkitpart          nucleo rdieter than
kyua                 jonathanspw
la-capitaine-icon-theme atim
labiryntowy-fonts    aekoroglu
ladspa               sergiomb wtaymans
lasem                alexpl
lasi                 orion
laughlin-backgrounds q5sys
laughlin-kde-theme   q5sys rdieter than
ldapdomaindump       fab
ldeep                fab
lector               aekoroglu
ledger               sham1
leonidas-backgrounds q5sys rdieter
leonidas-kde-theme   q5sys rdieter than
leptonica            dchen smani
leveldb              gil ktdreyer peter stevetraylen tchaikov
levien-inconsolata-fonts kevin
lgogdownloader       blowry
lib765               lucilanga
libEMF               mschorm rathann
libFS                ajax alexl bentiss caolanm rhughes rstrode
libHX                till
libQGLViewer         jussilehtola rmattes
libXcm               cicku kwizart
libXfont             ajax alexl bentiss caolanm rhughes rstrode
libXpresent          kevin raveit65
libXvMC              ajax alexl bentiss caolanm rhughes rstrode
libXxf86dga          ajax alexl bentiss caolanm jexposit rhughes rstrode
libXxf86misc         ajax alexl bentiss caolanm rhughes rstrode
libacars             vascom
libaccounts-glib     rdieter
libaccounts-qt       rdieter
libaec               junghans
libaesgm             orion spot
libalkimia           rdieter
libappindicator      echevemaster ngompa tpokorra
libart               dcavalca
libart_lgpl          alexl caolanm rhughes rstrode yselkowitz
libasr               dfateyev
libass               ngompa xavierb
libast               terjeros
libavtp              pbrobinson slaanesh
libax25              hobbes1069
libb64               ankursinha dcallagh dm0
libbatch             smani
libblocksruntime     tachoknight
libbluray            rathann slaanesh xavierb
libbonobo            alexl caolanm rhughes rstrode trawets
libbonoboui          alexl caolanm rhughes rstrode trawets
libbs2b              kvolny
libcaca              slaanesh xavierb
libcacard            crobinso elmarco jjelen jwrdegoede teuf
libcdaudio           pwalter
libcerf              jamatos junghans tdawson
libcgi               spot
libcgif              remi
libcgroup            jchaloup jsafrane nforro
libchamplain         kalev
libchardet           martinkg
libcint              jussilehtola
libcircle            junghans
libclaw              lkundrak martinkg xavierb
libcmpiutil          trawets
libcoap              pbrobinson
libcompizconfig      jskarvad
libcorrect           vascom
libcryptui           pwalter raveit65
libcrystalhd         kwizart
libcutl              sagitter
libdasm              rebus
libdbi               fjanus hhorak
libdbi-drivers       fjanus hhorak
libdbusextended-qt5  zsun
libdigidocpp         cserpentis germano
libdmapsharing4      mikep
libdnet              rjones robert
libdnf-plugin-txnupd dcavalca ngompa salimma
libdockapp           sham1
libdrm-armada        lkundrak
libdsk               lucilanga
libdvbpsi            kwizart
libeconf             ipedrosa ngompa
libecpint            junghans
libefp               jussilehtola
libepc               hguemar
liberasurecode       zaitcev
libesmtp             dcavalca jskarvad
libetnaviv           lkundrak
libevdevPlus         wef
libfep               ueno
libfilteraudio       eclipseo
libfprint            benzea smallorange
libftdi              hobbes1069 robert sharkcz
libfullock           hiwkby
libgadu              rathann
libgamerzilla        dulsi
libgdamm             hguemar spot
libgdata             rishi
libgdiplus           caolanm laxathom rhughes rstrode tpokorra
libgenht             avigne
libgeotiff           devrim orion smani
libgepub             kalev rishi
libgit2              cicku pwalter
libgit2-glib         atim ignatenkobrain kalev pwalter
libglade2            alexl caolanm rhughes rstrode yselkowitz
libgle               ajax
libglib-testing      kalev
libglpng             jwrdegoede
libgnome             alexl caolanm rhughes rstrode trawets
libgnome-keyring     mclasen rishi
libgnomecanvas       alexl caolanm rhughes rstrode yselkowitz
libgnomecanvasmm26   nphilipp verdurin
libgta               jkucera
libhbaapi            cleech
libibcommon          dledford honli michich steved
libicns              hobbes1069 musuruan xavierb
libidn1.34           rathann
libiec61883          nphilipp slaanesh
libiio               pbrobinson
libime               yanqiyu
libinjection         ngompa
[...]
ryanlerch  fedora-workstation-backgrounds
sagarun    ArpON cowpatty emacs-irsim-mode lxc
sagitter   MUMPS ProDy allegro autowrap avogadro2 avogadro2-libs bionetgen coin-or-Ipopt coin-or-Sample combblas crossguid2 hdf hdf5 icecat libcutl libmml libmodplug libnuml libsbw libsedml libtimidity maeparser mmtf-cpp molequeue nativejit openmeeg openms pymol python-cclib python-environs python-html5lib python-periodictable python-pmw qcad qwtplot3d scons smoldyn spglib superlu_dist xpra xsd
sailer     ghdl libsqlite3x mingw-antlr mingw-cairomm mingw-drmingw mingw-gtk2 mingw-gtkmm24 mingw-jimtcl mingw-lcms mingw-lcms2 mingw-libconfuse mingw-libftdi mingw-libglade2 mingw-libglademm24 mingw-libsigc++20 mingw-libsqlite3x mingw-libxml++ mingw-mpfr mingw-plotmm mingw-sparsehash mingw-tcl mingw-wpcap mingw-wxWidgets mingw-wxWidgets3 mingw-zfstream octave-general octave-interval octave-optim octave-specfun
salimma    asahi-scripts bpython bsdiff btrfs-fuse build-constraints-rpm-macros compat-lua cpdup cpputest dataquay disciplining-minipod dispenso dnf-plugin-cow emacs-slime fennel folly-rpm-macros gambit-c geary gnome-js-common gnome-keyring-sharp libdnf-plugin-txnupd liblo liboauth liboggz libtermkey libvterm lua-alt-getopt lua-bit32 lua-compat53 lua-filesystem lua-inotify lua-json lua-loop lua-lpeg lua-lunitx lua-moonscript lua-mpack lua-posix lua-readline lua-sql luarocks malcontent mcrouter miller mock-centos-sig-configs musl nextcloud-client nickle oflb-smonohand-fonts portaudio psi-notify python-TestSlide python-atomicwrites python-blessings python-bowler python-click-log python-click-threading python-curtsies python-django-allauth python-django-compressor python-django-database-url python-django-gravatar2 python-django-pdb python-django-picklefield python-django-q python-django-rest-framework python-extras python-fissix python-fixit python-howdoi python-html5lib python-keep python-linecache2 python-littleutils python-lupa python-matplotlib-inline python-moreorless python-nltk python-patatt python-pickleshare python-pretend python-publicsuffix2 python-pure-eval python-pytest-runner python-pytest-services python-represent python-requests-download python-sphinx-hoverxref python-sphinx-kr-theme python-sphinx_selective_exclude python-usort python-volatile switchtec terminus-fonts trousers tsl-sparse-map ubloxcfg vamp-plugin-sdk vdirsyncer waf xbacklight
saluki     golang-github-bruth-assert golang-github-elithrar-simple-scrypt golang-github-restic-chunker golang-github-vividcortex-mysqlerr golang-github-xlab-handysort
sandeen    libmodbus
sbluhm     mxparser openpgm perl-Mail-RFC822-Address xmlpull xstream
schwicke   rubygem-xmlparser
sciurius   perl-Text-Layout
scoady     python-pathtools
scorreia   keylime
scottt     Mars
sdgathman  cjdns dom4j dump1090 marked mp3fs nacl roca-detect thttpd
senderek   cryptlib cryptobone
sentry     sameboy zig
sergesanspaille clang13 lld13 llvm-test-suite llvm11 llvm12 llvm13 polly xtensor xtensor-python
sergiomb   ImageMagick atf bsd-games clamav ddnet debconf debootstrap dpkg fakechroot fakeroot fortune-mod gflags git-extras golang-github-fvbommel-sortorder golang-github-hanwen-fuse golang-github-tonistiigi-rosetta kBuild kwave ladspa libmikmod libmp4v2 libphonenumber lpf man2html megaglest-data mirmon mlt nextcloud nodm ogre p7zip perl-Cairo-GObject perl-Geography-Countries perl-Mail-Transport-Dbx php-facedetect pymol python-GeoIP python-pysol-cards python-rencode python-xlib rttr smokegen unar virtualbox-guest-additions w3c-markup-validator wxGlade xpra xsd
sergiopr   APLpy ATpy blitz blt cloudy python-d2to1 python-gatspy python-husl python-pdfrw python-pytest-openfiles python-pywt python-scikit-learn python-seaborn python-sep python-sphinx-argparse python-statsmodels python-supersmoother rst2pdf
sgallagh   argbash http-parser nodejs-less nodejs-packaging python-ModulemdTranslationHelpers python-click-man python-django-pipeline python-flake8 python-kgb python-memcached python-tqdm python-whoosh
sham1      chicken herbstluftwm ledger libdockapp oksh vis xss-lock
sharkcz    bullet cc65 collectl cross-gcc ddpt devio dmtx-utils firefox libftdi ogdi openhpi openhpi-subagent python-simpleeval pywebdav sdparm sigil smp_utils squirrel uboot-tools unittest-cpp
shlomif    black-hole-solver fortune-mod freecell-solver perl-Dir-Manifest perl-Games-Solitaire-Verify perl-Math-Random-MT perl-Test-Data-Split perl-Test-RunValgrind python-freecell_solver python-pysol-cards rinutils the_silver_searcher
sic        cantera nexus python-sphinx-bootstrap-theme
sicherha   python-jenkins
siddhesh   gst123 luajit
simo       python3-gssapi
siosm      akmods ebook-tools fedora-appstream-metadata
siwinski   ckeditor drupal7 php-Faker php-Monolog php-PHPParser php-cache-adapter-common php-cache-filesystem-adapter php-cache-integration-tests php-cache-tag-interop php-deepend-Mockery php-doctrine-annotations php-doctrine-cache php-doctrine-collections php-doctrine-common php-doctrine-datafixtures php-doctrine-doctrine-cache-bundle php-doctrine-inflector php-doctrine-lexer php-egulias-email-validator php-erusev-parsedown php-fedora-autoloader php-fig-link-util php-guzzlehttp-promises php-jdorn-sql-formatter php-masterminds-html5 php-mnapoli-phpunit-easymock php-mtdowling-jmespath-php php-ocramius-code-generator-utils php-ocramius-proxy-manager php-paragonie-random-compat php-phpdocumentor-reflection-common php-phpdocumentor-reflection-docblock2 php-phpdocumentor-type-resolver php-psr-cache php-psr-http-message php-psr-link php-psr-simple-cache php-sentry php-symfony-polyfill php-symfony-security-acl php-symfony4 php-twig php-webimpress-safe-writer php-webmozart-assert
skitt      gitlint miller
slaanesh   AMF YafaRay akmods asdcplib bacula bitcoin-core daala egl-gbm figlet gcab iscan-firmware kmodtool libavtp libbluray libcaca libiec61883 libtelnet libtomcrypt libupnp lpf lv2 meanwhile miniupnpc oneVPL pgbouncer python-pdfrw rst2pdf simple-scan stoken vapoursynth
slankes    daemonize detox docbook2X maatkit qca sj-fonts xdotool
slp        libkrunfw
smallorange libfprint libusb-compat-0.1
smani      GeographicLib OpenSceneGraph alglib apitrace avl commoncpp2 freeimage iaxclient jxrlib leptonica libbatch libgeotiff libkml liblas liblbfgs mapserver mingw-SDL_image mingw-angleproject mingw-atk mingw-dbus mingw-expat mingw-fcgi mingw-fontconfig mingw-glew mingw-goocanvas2 mingw-graphite2 mingw-gtk2 mingw-gtksourceview3 mingw-harfbuzz mingw-hunspell mingw-libcharset mingw-libepoxy mingw-libgta mingw-libimagequant mingw-libsoup mingw-libtasn1 mingw-libvorbis mingw-libxslt mingw-libzip mingw-llvm mingw-openal-soft mingw-protobuf mingw-python-affine mingw-python-chardet mingw-python-charset-normalizer mingw-python-dateutil mingw-python-ephem mingw-python-itsdangerous mingw-python-pyparsing mingw-python-pyproj mingw-python-pytz mingw-python-pyyaml mingw-python-setuptools mingw-python-six mingw-python-tomli mingw-python-urllib3 mingw-qextserialport mingw-qt5-qt3d mingw-qt5-qtactiveqt mingw-qt5-qtcharts mingw-qt5-qtgraphicaleffects mingw-qt5-qtimageformats mingw-qt5-qtlocation mingw-qt5-qtmultimedia mingw-qt5-qtquickcontrols mingw-qt5-qtquickcontrols2 mingw-qt5-qtscript mingw-qt5-qtsensors mingw-qt5-qtserialport mingw-qt5-qtsvg mingw-qt5-qttools mingw-qt5-qttranslations mingw-qt5-qtwebchannel mingw-qt5-qtwebsockets mingw-qt5-qtwinextras mingw-qt5-qtxmlpatterns mingw-spatialindex mingw-speex mingw-spirv-headers mingw-tk mingw-twaindsm postgis python-ephem python-flask-compress python-flask-gravatar python-flask-login python-flask-paranoid python-flask-principal python-flask-security-too python-httpagentparser python-lunr python-mergedeep python-mongoengine python-pillow python-pyyaml-env-tag python-sane python-user-agents qbs qhexedit2 qt4-style-fusion scotch svg2svgt tcl-togl virtualpg xfoil xrotor
snirkel    adplug rhythmbox
somlo      icestorm iodine iperf nextpnr python-logzero python-migen trellis wmx yosys
souryogurt cgreen
spetros    ansible-collection-microsoft-sql linux-system-roles
spike      apache-commons-math jtidy
spontsle   ipmctl
spot       QuantLib R-BufferedMatrix R-DBI R-IRanges R-R6 R-RCurl R-RSQLite R-abind R-acepack R-affyio R-cachem R-crayon R-digest R-magrittr R-memoise R-plogr R-praise R-preprocessCore R-prettyunits R-qvalue R-rpm-macros R-rtracklayer R-testthat R-widgetTools alienarena allgeyer-fonts avoision c-ares efl egd elementary enlightenment fbg2 fedora-remix-logos gbdfed generic-release giver gxemul iaxclient irrlicht jam julius libaesgm libcgi libgdamm libmcrypt libsexy libvidcap libxdiff luabind lwp lzma-sdk457 memchan mono-cecil-flowanalysis mono-reflection oflb-goudy-bookletter-1911-fonts oneko opendyslexic-fonts perl-Cairo perl-File-MMagic-XS perl-Geography-Countries perl-Gtk2 perl-Image-Base perl-Image-Size perl-Image-Xbm perl-Locale-Maketext-Fuzzy perl-Mail-Transport-Dbx perl-Package-New perl-Pango physfs plee-the-bear pyke python-cerealizer python-cson python-oauth2 python-speg radius-engine rpc2 silkscreen-fonts sqlite2 taglib-sharp tcl-tcludp tcl-tclvfs tcl-tileqt tcl-tkpng tcl-tktreectrl tcl-zlib terminology texlive texlive-base tkimg tlomt-sniglet-fonts udunits2 woodardworks-laconic-fonts xblas xbsql xkeycaps xloadimage xmbdfed xorg-x11-drv-ati
spredzy    rubygem-http_parser.rb
spstarr    rubygem-idn xmlrpc-epi
stefanb    farstream02 libnice
stefanha   git-publish
stefw      seahorse
steve      altermime amavis clamav neomutt pam_mount perl-String-Random
steved     libibcommon nfs-utils rpcsvc-proto rusers
stevetraylen bitmap glog h5py kstart leveldb liblzf log4c log4cpp openpgm python-beautifulsoup4 python-collectd_systemd python-django-tastypie python-humanize python-mimeparse python-pyModbusTCP python-setproctitle python-soupsieve rubygem-ansi rubygem-curb rubygem-rchardet rubygem-systemu uberftp xcalc xfig
sthiell    clustershell
stingray   flow-tools
stransky   firefox yelp
suanand    php-gettext-gettext python-tinydb
supakeen   python-pdir2 python-pygments-better-html
suraia     adobe-source-serif-pro-fonts distro-info distro-info-data dput-ng ibm-plex-fonts python-precis_i18n zsh-autosuggestions zsh-syntax-highlighting
survient   fpart freight
suve       dumb-init fpc gearhead1 gravity-beams-and-evaporating-stars jc prettyping python-whois rmlint spectrographic twa
svashisht  libnice
swt2c      CubicSDR python-blinker python-raven wxGlade
szpak      lpairs pylibacl pyxattr
tachoknight libblocksruntime libsqlite3x
tadej      pew python-virtualenv-clone vagrant-libvirt
tartina    clthreads clxclient dssi jack-audio-connection-kit jack-keyboard jalv liblo lilv lv2 non-ntk python-sphinx_lv2_theme serd sndfile-tools sord sratom suil
tbielawa   python-bitmath
tchaikov   leveldb python3-saml
tdawson    f31-backgrounds f32-backgrounds f35-backgrounds f36-backgrounds kdsoap kuserfeedback libcerf libpgf lightdm plasma-applet-translator python-flask python-lockfile python-openid-cla python-openid-teams python-versioneer python-werkzeug python-wtforms qt6ct rubygem-httpclient rubygem-idn rubygem-launchy rubygem-open4 rubygem-ruby-libvirt rubygem-sqlite3 sassc sj-fonts stoken weston xsettingsd
tdecacqu   python-sphinx-autodoc-typehints python-statsd
terjeros   bpython e16 e16-docs e16-epplets e16-keyedit e16-themes editres esound eterm ganglia grin h5py jericho-html libast libuninum mathomatic mycli perl-qooxdoo-compat php-pear-Net-IDNA2 pssh pyelftools python-acoustid python-audioread python-beautifulsoup4 python-cli-helpers python-construct python-curtsies python-cwcwidth python-exif python-hglib python-httpsig-cffi python-terminaltables python-tidy python-unipath rubygem-ruby-shadow sdparm sqliteman t1lib
teuf       libcacard libmusicbrainz5 mingw-libepoxy mingw-libgcrypt mingw-libgpg-error mingw-openssl mingw-spice-gtk mingw-spice-protocol mingw-usbredir phodav rest0.7 spice totem xorg-x11-drv-qxl
tflink     python-flask-sqlalchemy python-wtforms python-xunitparser
than       kactivities kapman kate katomic kblackbox kblocks kbounce kbrickbuster kcolorchooser kde-baseapps kde-filesystem kde-i18n kde-l10n kde-runtime kde-settings kdepimlibs kdialog kdiamond keditbookmarks kf5-kdelibs4support kf5-kdesignerplugin kf5-kdewebkit kf5-khtml kf5-kjs kfind kfourinline kget kgoldrunner kigo killbots kiriki kjumpingcube klickety klines kmahjongg knavalbattle knetwalk knotes kolf kollision kolourpaint konqueror konquest kontact kpat krdc kreversi kshisen ksirk ksnakeduel kspaceduel ksquares ksudoku kubrick kwebkitpart laughlin-kde-theme leonidas-kde-theme libkcddb libkdegames lovelock-kde-theme lskat migrationtools okteta oxygen-fonts palapeli phonon phonon-backend-gstreamer picmi plasma-workspace qimageblitz qt qt-assistant-adp qt-mobility qt5-qtaccountsservice qt5-qtconfiguration qtchooser qtwebkit sip smokegen solar-kde-theme soprano sparsehash sweeper texlive texlive-base verne-kde-theme
thebeanogamer golang-github-bgentry-netrc postfix-mta-sts-resolver python-click-spinner python-pyaes
thm        awesome botan botan2 geary httperf lmms lua-ldoc lua-lgi lua-lxc lua-markdown lua-penlight lxc pycmd python-apipkg python-execnet python-markdown python-markdown2 python-py python-regex python-sphinxcontrib-trio python-textile python3-lxc python3-simpletal stk surfraw tomboy waf xcb-util-xrm
thofmann   fcl orocos-bfl pcl python-rosdep python-rosdistro tinyxml
thomas-dickey luit vttest
thozza     libwvstreams spyder wvdial
thrnciar   pypy pypy3.9 python-CacheControl python-cleo python-colorzero python-crashtest python-elementpath python-executing python-jaraco-path python-lockfile python-pastel python-pylev python3.8 python3.9
thunderbirdtr angelfish gamescope kasts kclock khealthcertificate kongress kpublictransport libphonenumber libyui-gtk libyui-mga libyui-mga-gtk libyui-mga-ncurses libyui-mga-qt maliit-keyboard python-mailmerge python-manatools python-show-in-file-manager python-versioneer python-ytmusicapi qbs tokodon vakzination
tieugene   iso-country-flags liblxqt libqtxdg lumina-desktop lxqt-about lxqt-openssh-askpass nomacs python-trml2pdf qvge qxmledit
till       dtv-scan-tables hxtools libHX linux-system-roles reptyr xkbset youtube-dl
timj       altermime bind-to-tinydns
tjikkun    python-raven tcltls tkdnd
tkorbar    guile30 tomsfastmath
tomspur    python-jupyter-client python-jupyter-core python-minimock python-nbformat python-simplegeneric
tonyskapunk tmate
topazus    docparser prison python-git-changelog
torsava    python3.6 python3.8 python3.9
totol      python-GeoIP python-croniter python-progressbar2 python-utils python-xvfbwrapper
tpokorra   dbus-sharp dbus-sharp-glib gio-sharp gkeyfile-sharp gnome-desktop-sharp gnome-keyring-sharp gnome-sharp gtk-sharp-beans gtk-sharp2 gtk-sharp3 gudev-sharp libappindicator libgdiplus mod_mono mono-addins mono-basic mono-cecil mono-tools mono-zeroconf monodevelop-debugger-gdb mysql-connector-net ndesk-dbus ndesk-dbus-glib newtonsoft-json notify-sharp notify-sharp3 nunit nunit2 pinta restsharp sharpziplib taglib-sharp webkit2-sharp xsp
tpopela    firefox flatpak-rpm-macros
trawets    gconf-editor gtkhtml3 libbonobo libbonoboui libcmpiutil libgnome libmodman liboil libvirt-cim libvirt-java python-cov-core
tredaell   dpdk driverctl
tripledes  elisa-player
trix       opae ptex robin-map
tstellar   hsakmt llvm-test-suite llvm11 polly rocm-runtime rocminfo
ttomecek   nyancat python-dockerfile-parse python-ogr python-pytest-cov python-requre python-setuptools_scm_git_archive sen
tuju       python-utmp
tuliom     llvm-test-suite polly
turboben   pgpdump python-cloudflare
twaugh     atomic-reactor osbs-client pyppd python-dockerfile-parse
twoerner   iptstate motif
ueno       cocot firefox keylime libfep
uraeus     farstream02 gstreamer1-plugins-bad-free
v02460     golang-github-mattn-pointer
valtri     log4c mingw-c-ares mingw-gsm mingw-libtheora mingw-log4c mingw-opus mingw-wavpack rubygem-macaddr rubygem-uuid
van        android-tools python-crcmod
vanessakris python-git-changelog
vascom     diff-pdf eiskaltdcpp elisa-player git-extras gsmartcontrol gtkdatabox http-parser intel-gmmlib jaero libacars libcorrect lv2-mdala-plugins mediaconch mimalloc plasma-applet-translator python-pymediainfo qrencode rtklib srmio svt-vp9 tcl-thread
vda        uClibc
verdurin   libgnomecanvasmm26 rtorrent samtools
vfedorenko disciplining-minipod ubloxcfg
victortoso grilo-plugins mingw-libusbx mingw-spice-gtk mingw-spice-protocol mingw-usbredir spice xorg-x11-drv-qxl
vishalvvr  ektype-mukta-fonts shobhika-fonts smc-anjalioldlipi-fonts smc-dyuthi-fonts smc-suruma-fonts
vkrizan    python-peewee python-wtf-peewee
vmihalko   csmith
vondruch   rubygem-bcrypt rubygem-curb rubygem-ffi rubygem-launchy rubygem-open4 rubygem-rack rubygem-rdoc rubygem-ruby-libvirt rubygem-sqlite3 rubygems rubypick vagrant vagrant-cachier vagrant-libvirt vim-command-t vim-commentary vim-fugitive
vpodzime   python-ntplib
vstinner   python3.6 python3.8 python3.9
vtrefny    python-convertdate
walki      primesieve
walters    GConf2 clojure clutter fsverity-utils git-evtag gnome-desktop-testing stringtemplate
wart       rogue tcl-tclnagios
wcohen     rr
wef        aml libevdevPlus libuInputPlus neatvnc swappy wayvnc wl-gammactl wlogout wlr-sunclock wob
whot       xorg-x11-drv-ati xorg-x11-drv-vesa
wombelix   php-guzzlehttp-guzzle6 php-psr-http-client php-ralouphie-getallheaders
wtaymans   gstreamer-plugins-espeak gstreamer1-doc gstreamer1-plugins-bad-free gstreamer1-vaapi ladspa pipewire pipewire0.2 pulseaudio python-gstreamer1
wwoods     cowsay-beefymiracle plymouth-theme-hot-dog
wzzrd      libyubikey pam_yubico ykclient ykpers yubikey-personalization-gui
xavierb    alchemyquest drraw dtv-scan-tables foundation-icons-fonts libass libbluray libcaca libclaw libicns libudfread multiwatch nv-codec-headers perl-DateTime-Precise perl-Encode-HanExtra perl-HTML-CalendarMonthSimple perl-Image-Base perl-Image-Size perl-Image-Xbm perl-Lingua-Preferred perl-Net-UPnP perl-Sentry-Raven perl-Term-ShellUI perl-Time-ParseDate perl-Tk-TableMatrix perl-Types-DateTime perl-WWW-Search php-feedcreator php-pear-Crypt-Blowfish php-pear-Crypt-CHAP python-lockfile rssh xorg-x11-drv-openchrome
xhorak     firefox scantailor yelp
xvitaly    iwyu
yanqiyu    checksec fcitx-m17n fcitx-qt5 fcitx5 fcitx5-chewing fcitx5-chinese-addons fcitx5-gtk fcitx5-hangul fcitx5-lua fcitx5-m17n fcitx5-mozc fcitx5-qt fcitx5-rime fcitx5-unikey golang-github-chi-cors golang-github-chi-render libime xcb-imdkit
ykarel     python-incremental python-treq
yselkowitz gedit gstreamer1-plugins-bad-free libart_lgpl libglade2 libgnomecanvas libkcddb libmpcdec mypaint
zaitcev    liberasurecode python-pyeclib
zawertun   kuserfeedback python-sphinxext-opengraph
zbyszek    bionetgen python-cma python-libarchive-c python-makefun python-music21 python-numexpr python-pandocfilters python-pypandoc python-pysb python-pysnooper python-pytest-cases python-pytest-harvest python-pytest-steps python-rustcfg python-soupsieve python-sphinxcontrib-programoutput python-tables sng tralics unifont
zmiklank   mariadb10.11
zsun       gcin golang-github-alecthomas-assert golang-github-alecthomas-colour golang-github-alecthomas-repr golang-github-alecthomas-units golang-github-axgle-mahonia golang-github-cheekybits-is golang-github-disintegration-imaging golang-github-fogleman-gg golang-github-msteinert-pam golang-github-nfnt-resize libdbusextended-qt5 liblxqt libmpris-qt5 libqtxdg
zuul       python-APScheduler python-fb-re2 python-ogr python-sphinx-autodoc-typehints python-sphinxcontrib-blockdiag python-sphinxcontrib-openapi python-ws4py
zvetlik    nodejs-packaging web-assets
zyga       golang-github-gosexy-gettext golang-github-mvo5-goconfigparser golang-github-snapcore-gettext
zzambers   java-17-openjdk java-17-openjdk-portable java-latest-openjdk-portable
